# 12000000
#nworms:400
#np:160
1 1 254.505 274.437 1.24786 0.441009 0.150083 0.0
1 2 254.905 273.745 1.23601 0.173836 -0.232902 0.0
1 3 255.353 273.076 1.25894 0.141981 -0.0105399 0.0
1 4 255.857 272.458 1.23728 0.242553 -0.115531 0.0
1 5 256.402 271.863 1.27557 0.222437 0.0275994 0.0
1 6 256.797 271.162 1.24336 -0.039933 -0.247557 0.0
1 7 257.241 270.494 1.28952 -0.0751676 -0.189366 0.0
1 8 257.83 269.941 1.24677 0.0267684 -0.191585 0.0
1 9 258.325 269.312 1.29516 0.267443 0.00340897 0.0
1 10 258.827 268.689 1.25097 0.163837 -0.0511045 0.0
1 11 259.036 267.875 1.3007 0.101341 -0.173809 0.0
1 12 259.571 267.273 1.25137 -0.00954848 -0.112719 0.0
1 13 259.971 266.573 1.30136 0.202379 -0.0797686 0.0
1 14 260.575 266.032 1.24854 -0.0118197 -0.0568405 0.0
1 15 260.981 265.33 1.29794 0.528193 0.276858 0.0
1 16 261.55 264.766 1.24281 0.1808 0.103756 0.0
1 17 262.145 264.232 1.29418 0.0272901 -0.0836008 0.0
1 18 262.682 263.638 1.24844 -0.0533615 -0.128492 0.0
1 19 263.29 263.118 1.2987 0.0303479 0.0271351 0.0
1 20 263.943 262.654 1.24847 -0.113097 -0.244685 0.0
1 21 264.529 262.107 1.2978 0.039078 0.0428242 0.0
1 22 264.981 261.436 1.24129 -0.238551 -0.339534 0.0
1 23 265.489 260.825 1.29772 0.0441623 0.0188169 0.0
1 24 266.176 260.37 1.24116 -0.016227 -0.078616 0.0
1 25 266.621 259.692 1.29568 0.0236791 -0.0677081 0.0
1 26 267.167 259.112 1.24195 -0.051146 -0.13809 0.0
1 27 267.803 258.612 1.29171 0.0459109 -0.11715 0.0
1 28 268.218 257.905 1.24934 0.108201 -0.0715001 0.0
1 29 268.844 257.398 1.29162 -0.0361023 -0.252004 0.0
1 30 269.383 256.808 1.25401 0.374016 0.203671 0.0
1 31 269.971 256.261 1.2919 0.0440233 -0.258559 0.0
1 32 270.671 255.86 1.24964 0.231795 -0.0430279 0.0
1 33 271.306 255.379 1.28976 0.239089 0.0907723 0.0
1 34 271.974 254.932 1.24581 0.167032 -0.193107 0.0
1 35 272.687 254.57 1.29592 0.132939 -0.193514 0.0
1 36 273.42 254.243 1.24917 0.196087 -0.0132521 0.0
1 37 274.111 253.837 1.29687 0.0981418 -0.218422 0.0
1 38 274.743 253.338 1.24839 0.1106 -0.106571 0.0
1 39 275.309 252.772 1.29598 -0.153942 -0.392675 0.0
1 40 275.845 252.178 1.22213 0.0924347 -0.17063 0.0
1 41 276.385 251.587 1.29219 0.0321574 -0.175037 0.0
1 42 276.937 251.009 1.24772 0.3231 0.0177997 0.0
1 43 277.42 250.363 1.2922 0.156446 -0.00101217 0.0
1 44 278.054 249.865 1.2481 0.204115 -0.0621847 0.0
1 45 278.628 249.309 1.29745 -0.0888957 -0.250916 0.0
1 46 279.198 248.748 1.25421 0.0158767 -0.205872 0.0
1 47 279.742 248.156 1.29739 0.144378 0.0232947 0.0
1 48 280.166 247.472 1.25021 0.219227 0.0343686 0.0
1 49 280.627 246.821 1.28418 -0.0242252 -0.0426137 0.0
1 50 281.124 246.19 1.23697 0.176079 0.0246392 0.0
1 51 281.741 245.672 1.28554 -0.106845 -0.175661 0.0
1 52 282.286 245.09 1.24628 0.139839 -0.0363794 0.0
1 53 282.886 244.558 1.30051 -0.0279492 -0.213052 0.0
1 54 283.465 244.008 1.25133 0.483859 0.335125 0.0
1 55 284.085 243.502 1.3005 0.198376 -0.0374252 0.0
1 56 284.645 242.929 1.24339 0.267207 0.108201 0.0
1 57 285.243 242.402 1.29443 0.322885 0.0631449 0.0
1 58 285.873 241.905 1.24128 0.0108252 -0.110883 0.0
1 59 286.4 241.299 1.29589 0.137861 -0.133205 0.0
1 60 286.976 240.748 1.24551 0.00255029 -0.0342587 0.0
1 61 287.559 240.198 1.29672 0.0667683 -0.1695 0.0
1 62 288.042 239.557 1.24573 -0.177289 -0.213606 0.0
1 63 288.585 238.969 1.29604 0.0477793 -0.192258 0.0
1 64 289.1 238.361 1.24044 -0.139926 -0.18364 0.0
1 65 289.585 237.717 1.29456 0.0725238 -0.111629 0.0
1 66 290.211 237.213 1.24072 -0.0733457 -0.214092 0.0
1 67 290.824 236.698 1.29157 0.189617 0.0249901 0.0
1 68 291.524 236.306 1.23841 0.0196912 -0.217836 0.0
1 69 292.168 235.824 1.28459 -0.0057915 -0.307336 0.0
1 70 292.722 235.244 1.23267 0.254377 -0.067503 0.0
1 71 293.067 234.494 1.28399 0.217625 -0.180703 0.0
1 72 293.649 233.941 1.23572 0.395777 -0.024478 0.0
1 73 294.103 233.273 1.28696 0.26728 -0.102653 0.0
1 74 294.603 232.656 1.23611 0.420572 0.0742452 0.0
1 75 295.329 232.237 1.28731 0.0750117 -0.239927 0.0
1 76 295.759 231.547 1.23833 0.0278064 -0.301476 0.0
1 77 296.271 230.939 1.29069 0.132485 -0.203719 0.0
1 78 296.822 230.351 1.2412 -0.137817 -0.345344 0.0
1 79 297.18 229.621 1.29303 0.161619 -0.143076 0.0
1 80 297.677 228.996 1.24337 0.0793629 -0.163116 0.0
1 81 298.11 228.317 1.29619 0.21072 -0.0621109 0.0
1 82 298.414 227.576 1.24452 -0.116385 -0.273446 0.0
1 83 298.794 226.87 1.29659 0.277138 0.0120022 0.0
1 84 299.07 226.118 1.24279 0.237187 -0.102577 0.0
1 85 299.323 225.359 1.29241 0.252395 0.0409092 0.0
1 86 299.613 224.614 1.23834 -0.0811961 -0.185912 0.0
1 87 300.006 223.908 1.28688 -0.0787748 -0.0980665 0.0
1 88 300.174 223.118 1.23454 0.210033 -0.00966238 0.0
1 89 300.402 222.354 1.28854 0.124343 -0.0856508 0.0
1 90 300.588 221.575 1.23815 -0.0409592 -0.0664201 0.0
1 91 300.955 220.85 1.29285 -0.0592424 -0.224423 0.0
1 92 301.001 220.03 1.24292 -0.144766 -0.105017 0.0
1 93 301.283 219.283 1.29587 -0.166736 -0.261978 0.0
1 94 301.557 218.53 1.2443 -0.239077 -0.119614 0.0
1 95 301.815 217.775 1.29947 0.143057 -0.112595 0.0
1 96 302.019 216.997 1.24062 0.0609317 -0.0384684 0.0
1 97 302.418 216.294 1.28849 -0.118367 -0.182344 0.0
1 98 302.747 215.569 1.23131 0.196683 0.0663386 0.0
1 99 303.203 214.901 1.27731 -0.0574367 -0.0837174 0.0
1 100 303.486 214.15 1.22382 -0.240357 -0.201756 0.0
1 101 303.922 213.47 1.27344 -0.182106 -0.104173 0.0
1 102 304.225 212.733 1.22885 -0.241908 -0.209605 0.0
1 103 304.543 211.991 1.28329 0.0713552 -0.0344881 0.0
1 104 304.593 211.177 1.2408 -0.472763 -0.302383 0.0
1 105 304.767 210.402 1.28867 0.241309 -0.0830966 0.0
1 106 305.013 209.636 1.24306 -0.10744 -0.2322 0.0
1 107 305.167 208.852 1.29419 -0.00736983 -0.230531 0.0
1 108 305.298 208.06 1.24293 0.0327569 -0.214415 0.0
1 109 305.333 207.261 1.29382 0.284377 -0.301843 0.0
1 110 305.383 206.461 1.24351 0.0174757 -0.220451 0.0
1 111 305.51 205.671 1.29517 -0.045699 -0.290802 0.0
1 112 305.684 204.888 1.24506 0.0230235 -0.259274 0.0
1 113 305.738 204.088 1.29521 -0.606199 -0.361743 0.0
1 114 305.771 203.288 1.24307 -0.188597 -0.234066 0.0
1 115 305.716 202.483 1.29204 0.130121 -0.361648 0.0
1 116 305.359 201.739 1.24058 -0.3701 -0.186908 0.0
1 117 305.271 200.944 1.28741 -0.0349118 -0.231571 0.0
1 118 305.073 200.166 1.239 -0.121751 -0.237405 0.0
1 119 304.919 199.381 1.28809 0.0487843 -0.227731 0.0
1 120 304.938 198.571 1.24387 0.230774 -0.229247 0.0
1 121 304.807 197.785 1.29176 0.0743973 -0.151519 0.0
1 122 304.618 197.004 1.24546 0.213128 -0.198397 0.0
1 123 304.443 196.227 1.28786 -0.178666 -0.0937435 0.0
1 124 303.946 195.55 1.24209 -0.0642299 -0.107907 0.0
1 125 303.816 194.756 1.27949 0.00468336 -0.174196 0.0
1 126 303.65 193.975 1.23498 0.212577 -0.189033 0.0
1 127 303.737 193.16 1.27572 0.323857 -0.190858 0.0
1 128 303.599 192.374 1.2312 0.222983 -0.252815 0.0
1 129 303.345 191.609 1.27727 0.0414682 -0.154771 0.0
1 130 302.997 190.89 1.23926 -0.0883466 -0.139035 0.0
1 131 302.618 190.187 1.27907 -0.162928 -0.116459 0.0
1 132 302.222 189.493 1.23927 0.357796 -0.430287 0.0
1 133 301.829 188.795 1.28179 -0.0264595 -0.176739 0.0
1 134 301.258 188.219 1.23988 -0.112936 -0.0662048 0.0
1 135 300.777 187.589 1.28618 0.152015 -0.351144 0.0
1 136 300.271 186.962 1.24583 0.0117688 -0.146454 0.0
1 137 299.69 186.413 1.28947 0.0676148 -0.239729 0.0
1 138 299.087 185.889 1.24649 -0.100157 -0.156457 0.0
1 139 298.5 185.343 1.29039 -0.120937 -0.070519 0.0
1 140 297.877 184.841 1.24824 -0.0209714 -0.30624 0.0
1 141 297.244 184.35 1.28754 -0.0168102 -0.201066 0.0
1 142 296.597 183.879 1.24413 -0.249011 -0.156782 0.0
1 143 295.934 183.427 1.28409 -0.096136 -0.0810056 0.0
1 144 295.404 182.809 1.2421 0.0826113 -0.532576 0.0
1 145 294.753 182.346 1.28389 -0.0366962 -0.162099 0.0
1 146 294.09 181.893 1.24118 -0.00974913 -0.316337 0.0
1 147 293.393 181.497 1.2837 -0.129665 0.00434511 0.0
1 148 292.635 181.226 1.24417 0.0377567 -0.299553 0.0
1 149 291.867 181.008 1.28867 -0.0815523 0.0770375 0.0
1 150 291.076 180.87 1.24479 -0.0455854 0.0709009 0.0
1 151 290.312 180.625 1.29076 -0.1082 0.208382 0.0
1 152 289.541 180.417 1.24833 0.101375 -0.367992 0.0
1 153 288.756 180.247 1.28993 -0.0283581 -0.0567724 0.0
1 154 288.005 179.97 1.24291 -0.147189 0.195705 0.0
1 155 287.2 179.877 1.28031 -0.0558038 0.253175 0.0
1 156 286.45 179.587 1.23519 -0.22089 0.381683 0.0
1 157 285.678 179.384 1.26571 0.0931873 0.00708667 0.0
1 158 284.86 179.375 1.2315 -0.331738 0.492555 0.0
1 159 284.123 179.003 1.24445 0.0806887 0.113045 0.0
1 160 283.369 178.784 1.21671 -0.075462 -0.210375 0.0
2 1 209.687 315.902 3.99013e-07 0.322184 -0.274186 0.0
2 2 208.986 316.445 6.16895e-07 0.245488 -0.387737 0.0
2 3 208.178 316.423 1.11939e-06 0.109128 -0.429999 0.0
2 4 207.386 316.577 2.2666e-06 0.106458 -0.119401 0.0
2 5 206.601 316.679 5.30156e-07 -0.28969 -0.223624 0.0
2 6 205.795 316.77 5.98767e-07 0.292758 -0.123989 0.0
2 7 205.003 316.807 1.78809e-07 0.00934821 0.0159493 0.0
2 8 204.219 316.507 6.40179e-06 0.165832 0.0683491 0.0
2 9 203.41 316.606 7.21342e-07 0.210894 0.738846 0.0
2 10 202.618 316.511 1.16904e-06 0.21081 -0.262002 0.0
2 11 201.819 316.482 1.6043e-06 -0.0112623 -0.116722 0.0
2 12 201.036 316.251 1.75577e-06 0.214555 -0.0254484 0.0
2 13 200.23 316.244 1.1659e-05 -0.0379111 0.0341725 0.0
2 14 199.436 316.124 6.68519e-06 -0.408618 -0.0412749 0.0
2 15 198.65 315.998 2.50831e-06 0.0793655 -0.0161787 0.0
2 16 197.906 315.628 1.0273e-06 -0.229989 -0.0983661 0.0
2 17 197.106 315.582 9.00284e-07 0.350774 -0.144023 0.0
2 18 196.315 315.437 3.56234e-07 0.0283627 -0.231312 0.0
2 19 195.562 315.16 1.18425e-06 0.0823509 0.21069 0.0
2 20 194.851 314.792 3.42047e-07 0.0379889 0.0522162 0.0
2 21 194.097 314.515 1.01071e-06 0.420806 0.22005 0.0
2 22 193.334 314.28 3.83905e-07 0.160213 0.172714 0.0
2 23 192.579 314.006 7.79219e-07 -0.173747 -0.189682 0.0
2 24 191.832 313.736 3.92126e-07 0.657049 0.132864 0.0
2 25 191.123 313.349 4.64686e-07 0.0348724 -0.0571283 0.0
2 26 190.362 313.101 7.78372e-07 -0.193693 0.00559161 0.0
2 27 189.629 312.775 7.83324e-07 -0.30025 0.228187 0.0
2 28 188.817 312.712 2.45707e-06 -0.198275 -0.238723 0.0
2 29 188.061 312.44 5.72417e-07 -0.055119 0.101504 0.0
2 30 187.305 312.185 1.01216e-06 -0.188895 -0.34157 0.0
2 31 186.5 312.081 6.49927e-07 0.18121 -0.220288 0.0
2 32 185.734 311.863 1.562e-06 0.112922 0.254758 0.0
2 33 184.957 311.673 5.0211e-07 -0.101401 -0.266031 0.0
2 34 184.236 311.322 1.35326e-06 0.122111 0.111138 0.0
2 35 183.47 311.076 1.38637e-06 -0.139312 0.149167 0.0
2 36 182.799 310.622 4.81502e-07 -0.0844062 0.00840277 0.0
2 37 182.155 310.16 1.82595e-06 -0.640237 0.0527055 0.0
2 38 181.5 309.7 5.43402e-08 -0.211395 -0.560338 0.0
2 39 180.834 309.245 6.39246e-07 0.0747051 -0.189753 0.0
2 40 180.143 308.849 1.29349e-06 -0.100897 -0.228519 0.0
2 41 179.363 308.626 3.64588e-06 -0.00695442 -0.0513303 0.0
2 42 178.734 308.094 1.77159e-06 0.131743 0.346721 0.0
2 43 177.991 307.807 6.92727e-06 0.358753 0.220592 0.0
2 44 177.261 307.46 6.68315e-07 0.166042 0.337934 0.0
2 45 176.511 307.195 8.08965e-07 -0.348321 -0.200418 0.0
2 46 175.766 306.883 5.70717e-07 0.183846 0.326301 0.0
2 47 174.996 306.681 1.76286e-06 -0.000527778 -0.11387 0.0
2 48 174.216 306.475 9.60788e-07 -0.300281 -0.516245 0.0
2 49 173.472 306.19 5.49245e-07 -0.542511 -0.197922 0.0
2 50 172.717 305.916 1.46975e-06 0.341151 0.124255 0.0
2 51 171.95 305.683 8.35193e-07 0.0754798 -0.306267 0.0
2 52 171.139 305.655 7.80522e-06 -0.355374 0.0389499 0.0
2 53 170.346 305.614 9.09485e-08 0.155737 -0.0750878 0.0
2 54 169.555 305.482 1.23546e-06 0.199289 0.0902354 0.0
2 55 168.775 305.312 7.80569e-09 0.00693395 0.256912 0.0
2 56 167.962 305.279 3.33444e-07 -0.0604023 -0.10441 0.0
2 57 167.193 305.133 1.05755e-06 -0.160722 -0.236853 0.0
2 58 166.379 305.054 4.30946e-07 0.0829979 0.118741 0.0
2 59 165.632 304.771 6.13361e-07 0.0472571 0.186918 0.0
2 60 164.926 304.395 4.74604e-07 -0.0232342 -0.207025 0.0
2 61 164.117 304.265 3.28701e-07 0.209283 -0.537513 0.0
2 62 163.378 303.965 8.96989e-07 0.0642677 0.193997 0.0
2 63 162.706 303.508 1.54805e-07 0.242844 0.227159 0.0
2 64 161.955 303.229 5.89055e-07 0.00886167 0.14104 0.0
2 65 161.227 302.916 3.46197e-07 -0.422242 0.0914431 0.0
2 66 160.446 302.707 1.4359e-06 -0.255328 0.00655121 0.0
2 67 159.71 302.379 1.52782e-07 -0.148667 -0.341515 0.0
2 68 158.897 302.299 4.08168e-07 0.320558 -0.253445 0.0
2 69 158.114 302.209 0.0 -0.23845 -0.121486 0.0
2 70 157.358 301.907 1.78165e-07 0.0794231 -0.0149936 0.0
2 71 156.537 301.898 2.35357e-08 0.188669 -0.000631171 0.0
2 72 155.759 301.771 2.08558e-06 -0.104527 -0.154446 0.0
2 73 154.957 301.635 7.51181e-08 0.155038 -0.0550048 0.0
2 74 154.201 301.369 4.20399e-07 -0.305797 -0.155842 0.0
2 75 153.387 301.324 5.00357e-08 -0.308751 -0.0515704 0.0
2 76 152.7 300.816 5.32063e-07 -0.0625151 0.48763 0.0
2 77 151.864 300.846 2.10632e-07 -0.0930096 -0.00298106 0.0
2 78 151.105 300.613 1.63735e-06 0.341683 -0.490674 0.0
2 79 150.399 300.196 1.39923e-07 0.0417876 -0.190791 0.0
2 80 149.557 300.208 5.63928e-07 0.076002 -0.467936 0.0
2 81 148.813 299.931 1.11132e-07 0.0017671 -0.19339 0.0
2 82 148.037 299.703 1.3502e-06 0.222147 -0.176584 0.0
2 83 147.339 299.303 1.29388e-06 -0.162395 -0.165481 0.0
2 84 146.531 299.167 3.26587e-07 0.299592 0.298429 0.0
2 85 145.774 298.934 5.29108e-07 -0.0943424 0.0290083 0.0
2 86 144.981 298.796 2.84973e-07 -0.206184 -0.0677704 0.0
2 87 144.189 298.663 4.45356e-07 -0.086012 0.0452652 0.0
2 88 143.402 298.553 8.21794e-07 0.25983 -0.234114 0.0
2 89 142.628 298.321 1.21626e-06 0.494145 -0.0854183 0.0
2 90 141.797 298.538 2.92863e-07 0.18737 -0.202093 0.0
2 91 141.029 298.312 5.82137e-07 -0.0831472 0.304617 0.0
2 92 140.252 298.131 4.8468e-07 -0.487191 -0.145149 0.0
2 93 139.479 297.901 2.00415e-06 0.124913 -0.253416 0.0
2 94 138.731 297.624 1.67816e-07 0.451032 0.146282 0.0
2 95 138.095 297.118 5.96323e-07 -0.363878 -0.0793114 0.0
2 96 137.38 296.763 6.20273e-07 0.07822 0.169793 0.0
2 97 136.701 296.342 4.27984e-07 -0.0580341 0.125974 0.0
2 98 135.918 296.113 5.4247e-07 0.36204 -0.0546212 0.0
2 99 135.268 295.642 9.74716e-07 -0.334785 -0.0172036 0.0
2 100 134.437 295.5 4.24234e-07 0.0756571 0.475919 0.0
2 101 133.818 294.976 1.25387e-06 -0.0688277 0.133703 0.0
2 102 133.063 294.694 2.90085e-07 0.0857895 -0.406178 0.0
2 103 132.437 294.169 2.05597e-06 0.143084 0.0927391 0.0
2 104 131.744 293.783 7.35962e-08 0.168404 0.29488 0.0
2 105 130.942 293.576 5.07436e-07 0.370875 -0.0532514 0.0
2 106 130.279 293.142 6.51397e-07 -0.111296 -0.117709 0.0
2 107 129.664 292.618 6.46016e-07 -0.421691 -0.25278 0.0
2 108 128.902 292.338 3.97009e-07 0.162728 -0.284287 0.0
2 109 128.24 291.89 3.88746e-07 -0.117128 -0.310972 0.0
2 110 127.594 291.426 5.30014e-07 -0.391473 0.230128 0.0
2 111 126.872 291.045 5.71214e-08 0.100799 -0.23048 0.0
2 112 126.291 290.494 8.0782e-08 0.311263 -0.0773912 0.0
2 113 125.728 289.921 2.05785e-07 -0.0619664 0.0985653 0.0
2 114 125.33 289.211 1.02104e-06 -0.179192 -0.129518 0.0
2 115 124.647 288.74 3.42406e-07 -0.474091 -0.0879727 0.0
2 116 124.206 288.071 2.21507e-07 -0.4249 0.390764 0.0
2 117 123.684 287.458 1.46514e-06 0.190467 0.133249 0.0
2 118 123.197 286.83 4.82931e-07 0.0993571 0.0368333 0.0
2 119 122.695 286.208 5.57626e-07 0.173846 0.156767 0.0
2 120 122.205 285.583 1.55701e-07 -0.144629 -0.415939 0.0
2 121 121.6 285.057 1.20228e-06 -0.137087 -0.212941 0.0
2 122 121.093 284.433 6.29772e-07 -0.116554 -0.307148 0.0
2 123 120.624 283.791 3.37728e-07 0.250525 0.109077 0.0
2 124 120.045 283.236 2.38353e-07 -0.217604 -0.0305807 0.0
2 125 119.447 282.698 2.67403e-08 0.143859 -0.208228 0.0
2 126 118.831 282.186 2.46357e-07 0.322108 0.112769 0.0
2 127 118.298 281.578 1.26871e-07 0.0582808 -0.0962808 0.0
2 128 117.646 281.118 2.21847e-06 -0.182651 0.343506 0.0
2 129 117.069 280.561 0.0 -0.238339 0.333988 0.0
2 130 116.371 280.153 1.59022e-05 -0.288337 -0.167254 0.0
2 131 115.763 279.64 1.44678e-07 0.269019 -0.2993 0.0
2 132 115.205 279.059 4.07982e-06 0.172948 -0.264608 0.0
2 133 114.538 278.617 8.59759e-07 -0.41104 0.160091 0.0
2 134 113.815 278.267 8.95094e-08 0.312564 -0.324332 0.0
2 135 113.062 277.995 1.61486e-07 0.365556 -0.205431 0.0
2 136 112.309 277.73 9.92461e-08 0.216063 0.0899621 0.0
2 137 111.486 277.708 8.73282e-07 0.19232 -0.307771 0.0
2 138 110.756 277.365 2.57394e-07 -0.185879 -0.179504 0.0
2 139 109.956 277.25 2.5891e-06 0.0959253 -0.0146536 0.0
2 140 109.195 276.952 5.27184e-06 0.524713 -0.0970011 0.0
2 141 108.411 276.846 2.48247e-06 -0.144058 -0.170721 0.0
2 142 107.592 276.8 1.49297e-06 0.35269 0.0356052 0.0
2 143 106.843 276.523 2.33188e-06 0.248189 0.212456 0.0
2 144 106.13 276.142 6.40082e-07 -0.0880718 -0.127842 0.0
2 145 105.478 275.679 1.25431e-06 -0.135753 0.0909659 0.0
2 146 104.867 275.157 5.77049e-06 -0.302975 0.281298 0.0
2 147 104.196 274.709 1.56042e-06 -0.010071 0.0159251 0.0
2 148 103.485 274.351 2.73334e-07 0.154605 -0.187478 0.0
2 149 102.861 273.835 3.54607e-07 -0.384025 0.273869 0.0
2 150 102.29 273.284 1.79606e-08 -0.079051 -0.297057 0.0
2 151 101.722 272.714 2.01407e-07 -0.0833918 -0.302856 0.0
2 152 101.22 272.09 2.25999e-07 -0.130809 0.448808 0.0
2 153 100.517 271.651 4.86875e-08 -0.0373801 0.0745259 0.0
2 154 100.053 270.995 1.75345e-07 0.209393 -0.141107 0.0
2 155 99.5712 270.368 8.15162e-08 -0.3356 -0.289869 0.0
2 156 99.06 269.748 5.72935e-07 0.34379 -0.230929 0.0
2 157 98.6391 269.069 5.18132e-07 0.0798423 -0.366131 0.0
2 158 98.2404 268.372 4.28182e-06 -0.133631 0.0491849 0.0
2 159 98.097 267.564 4.15304e-07 -0.236833 0.364859 0.0
2 160 97.6526 266.886 1.80877e-08 -0.136856 -0.0492848 0.0
3 1 300.552 217.901 3.19955 0.268159 0.0846074 0.0
3 2 300.125 218.583 3.16378 0.0899616 0.094573 0.0
3 3 299.41 219.024 3.18111 0.0893226 -0.0987272 0.0
3 4 298.97 219.691 3.1328 0.200804 0.111608 0.0
3 5 298.536 220.37 3.16762 0.0161997 -0.158753 0.0
3 6 298.271 221.13 3.11385 0.208679 0.0406191 0.0
3 7 298.038 221.892 3.15766 0.229619 -0.0996886 0.0
3 8 297.79 222.656 3.09933 -0.0645389 -0.0894773 0.0
3 9 297.448 223.38 3.14499 0.231607 -0.0645907 0.0
3 10 297.016 224.057 3.08816 0.347499 0.0908455 0.0
3 11 296.723 224.805 3.13679 0.179121 0.00434626 0.0
3 12 296.258 225.467 3.07683 0.0593415 -0.0489375 0.0
3 13 295.939 226.199 3.12222 0.0602538 0.0192478 0.0
3 14 295.689 226.962 3.05867 -0.148911 -0.0701705 0.0
3 15 295.25 227.643 3.11034 -0.323871 -0.135534 0.0
3 16 294.997 228.403 3.0473 -0.0211229 0.0424307 0.0
3 17 294.719 229.153 3.10219 -0.347397 -0.116034 0.0
3 18 294.74 229.982 3.04278 0.207135 0.0977675 0.0
3 19 294.494 230.739 3.09758 -0.0529966 -0.082614 0.0
3 20 294.212 231.494 3.03762 0.0596294 0.03122 0.0
3 21 293.786 232.175 3.09294 -0.0718044 -0.117235 0.0
3 22 293.429 232.891 3.03067 -0.0660596 -0.0859794 0.0
3 23 293.176 233.655 3.08952 -0.00337923 -0.0920312 0.0
3 24 292.844 234.382 3.02749 0.13182 -0.0922474 0.0
3 25 292.619 235.155 3.08722 -0.0399372 -0.0917902 0.0
3 26 292.239 235.864 3.0271 0.20663 -0.110695 0.0
3 27 291.886 236.578 3.08589 0.041015 -0.076522 0.0
3 28 291.533 237.299 3.0268 -0.127624 -0.282791 0.0
3 29 291.234 238.039 3.08745 0.335731 0.0290995 0.0
3 30 290.988 238.803 3.02536 0.204873 -0.108261 0.0
3 31 290.739 239.561 3.08322 0.260719 -0.0265463 0.0
3 32 290.297 240.248 3.02537 0.227002 -0.0213773 0.0
3 33 290.146 241.047 3.08337 -0.118938 -0.210381 0.0
3 34 289.833 241.78 3.03211 0.188077 0.0290321 0.0
3 35 289.463 242.496 3.08544 0.00668673 -0.185067 0.0
3 36 288.987 243.139 3.03369 -0.262606 -0.173929 0.0
3 37 288.466 243.748 3.08534 -0.0169329 -0.165028 0.0
3 38 287.974 244.38 3.03672 -0.22969 -0.162054 0.0
3 39 287.6 245.093 3.0818 0.216648 0.00881575 0.0
3 40 287.063 245.7 3.03519 -0.0978418 -0.0506449 0.0
3 41 286.61 246.352 3.08386 0.302093 0.0733365 0.0
3 42 286.43 247.176 3.03551 0.0880641 0.0565655 0.0
3 43 285.929 247.803 3.08386 0.00233693 -0.0806809 0.0
3 44 285.439 248.438 3.03856 -0.193007 -0.162929 0.0
3 45 284.981 249.09 3.08612 -0.0333797 -0.0912748 0.0
3 46 284.502 249.737 3.0448 -0.135891 -0.127813 0.0
3 47 284.113 250.434 3.09526 0.21529 0.0784023 0.0
3 48 283.835 251.192 3.05531 0.248309 0.0448111 0.0
3 49 283.475 251.901 3.10259 -0.175164 -0.0761838 0.0
3 50 283.161 252.641 3.06256 0.0196206 -0.0176435 0.0
3 51 282.738 253.319 3.11379 -0.084842 -0.0317978 0.0
3 52 282.295 253.985 3.07046 -0.0694908 -0.0166971 0.0
3 53 281.975 254.722 3.12455 0.093112 0.0982683 0.0
3 54 281.329 255.26 3.07846 0.0452171 0.132193 0.0
3 55 281.046 256.018 3.13484 -0.226316 -0.110713 0.0
3 56 280.557 256.661 3.08913 -0.402959 -0.100995 0.0
3 57 280.272 257.414 3.14067 -0.071816 -0.0561312 0.0
3 58 280.07 258.186 3.09659 0.0939763 0.0246884 0.0
3 59 279.878 258.963 3.14664 -0.0362629 -0.0449939 0.0
3 60 279.465 259.666 3.10454 -0.0827292 -0.073385 0.0
3 61 279.349 260.473 3.15576 -0.131178 -0.0485637 0.0
3 62 279.014 261.199 3.11189 -0.259333 -0.144873 0.0
3 63 278.675 261.925 3.16523 0.00258893 0.0401694 0.0
3 64 278.224 262.591 3.11535 -0.184392 -0.109487 0.0
3 65 277.765 263.241 3.17012 0.159128 0.148091 0.0
3 66 277.173 263.798 3.11926 -0.0416545 0.014874 0.0
3 67 276.76 264.483 3.17434 0.114776 0.101768 0.0
3 68 276.339 265.164 3.12076 -0.128151 -0.0526949 0.0
3 69 275.861 265.804 3.17297 0.153476 0.114793 0.0
3 70 275.435 266.483 3.11864 -0.14468 -0.101309 0.0
3 71 274.873 267.057 3.17124 -0.0621082 -0.0729568 0.0
3 72 274.368 267.675 3.11338 -0.00592417 -0.0525554 0.0
3 73 273.967 268.372 3.16532 -0.196598 -0.14576 0.0
3 74 273.583 269.07 3.10413 -0.0168932 -0.0976175 0.0
3 75 272.966 269.617 3.15687 0.203284 0.0992561 0.0
3 76 272.564 270.303 3.09363 0.201089 0.0798676 0.0
3 77 272.161 271.001 3.14262 0.17394 0.0410847 0.0
3 78 271.884 271.751 3.07907 0.462931 0.158417 0.0
3 79 271.626 272.512 3.1277 -0.066954 -0.0419034 0.0
3 80 271.213 273.203 3.06528 -0.0425022 -0.11478 0.0
3 81 270.792 273.883 3.10834 0.0765584 0.0483827 0.0
3 82 270.253 274.483 3.04624 0.114654 0.0379412 0.0
3 83 269.786 275.132 3.08822 -0.00364202 -0.0202943 0.0
3 84 269.329 275.791 3.02764 -0.163063 -0.15593 0.0
3 85 268.854 276.439 3.07419 -0.148422 -0.094586 0.0
3 86 268.256 276.981 3.01502 -0.0192241 -0.016012 0.0
3 87 267.703 277.558 3.06306 -0.0109448 0.0402296 0.0
3 88 267.221 278.203 3.00508 0.00373527 0.0637291 0.0
3 89 266.708 278.819 3.05411 -0.034845 0.043554 0.0
3 90 266.043 279.288 2.99558 -0.178884 -0.103286 0.0
3 91 265.505 279.878 3.04551 0.0813898 0.183467 0.0
3 92 264.809 280.308 2.99699 -0.196729 -0.0782948 0.0
3 93 264.356 280.993 3.04166 -0.0408506 0.0719547 0.0
3 94 263.762 281.522 3.00113 0.0414694 0.0989626 0.0
3 95 263.097 281.982 3.04674 -0.0206578 0.0833095 0.0
3 96 262.424 282.403 3.00101 -0.0625397 -0.104834 0.0
3 97 261.831 282.961 3.03767 0.0442533 0.154981 0.0
3 98 261.076 283.266 2.99088 -0.219575 -0.4073 0.0
3 99 260.438 283.751 3.03989 0.00321057 0.00967403 0.0
3 100 259.733 284.134 2.99874 0.145546 0.119064 0.0
3 101 259.055 284.556 3.04046 0.00587163 -0.0240787 0.0
3 102 258.375 284.981 2.99433 0.00760069 -0.134101 0.0
3 103 257.74 285.464 3.04092 0.165587 0.173072 0.0
3 104 257.081 285.919 3.00105 0.126838 0.0386897 0.0
3 105 256.424 286.373 3.05179 -0.11402 -0.311966 0.0
3 106 255.733 286.776 3.01009 0.0919834 -0.0279016 0.0
3 107 255.053 287.195 3.0574 0.0715874 -0.0620794 0.0
3 108 254.319 287.52 3.00802 -0.0122756 -0.212555 0.0
3 109 253.584 287.826 3.05844 0.0339942 -0.209337 0.0
3 110 252.786 287.98 3.00968 -0.0112803 -0.12392 0.0
3 111 252.096 288.411 3.06375 0.136533 0.00285789 0.0
3 112 251.348 288.684 3.0136 0.0372702 -0.00742423 0.0
3 113 250.578 288.915 3.06583 -0.00552317 -0.318384 0.0
3 114 249.809 289.12 3.01671 0.0115756 -0.167051 0.0
3 115 249.029 289.32 3.0688 -0.0549344 -0.411149 0.0
3 116 248.309 289.676 3.02251 0.070317 -0.0823209 0.0
3 117 247.6 290.042 3.07609 0.0897829 -0.0622524 0.0
3 118 246.862 290.356 3.03175 -0.0268833 -0.347998 0.0
3 119 246.138 290.691 3.08827 0.000295455 -0.178955 0.0
3 120 245.412 291.029 3.04218 0.0992537 -0.0282565 0.0
3 121 244.743 291.472 3.09341 -0.0562395 -0.191756 0.0
3 122 244.0 291.776 3.04682 0.196229 0.250944 0.0
3 123 243.423 292.375 3.09785 -0.0507176 -0.0581541 0.0
3 124 242.662 292.651 3.04612 -0.09258 -0.0754341 0.0
3 125 241.984 293.072 3.09633 -0.0339129 0.125172 0.0
3 126 241.225 293.353 3.04521 -0.0500368 0.0770726 0.0
3 127 240.559 293.799 3.10302 -0.121685 0.01678 0.0
3 128 239.868 294.201 3.0497 -0.115186 -0.0232678 0.0
3 129 239.214 294.668 3.10839 -0.130477 -0.000994603 0.0
3 130 238.48 294.998 3.05136 -0.080336 -0.0613672 0.0
3 131 237.847 295.505 3.11255 -0.127376 -0.0252753 0.0
3 132 237.074 295.764 3.05576 0.0755152 0.166877 0.0
3 133 236.399 296.192 3.11385 0.0210723 0.229979 0.0
3 134 235.682 296.559 3.05854 0.0477471 0.119083 0.0
3 135 234.906 296.775 3.11682 0.0584747 0.237989 0.0
3 136 234.126 296.947 3.06582 0.0693317 -0.039579 0.0
3 137 233.329 297.048 3.12056 0.0610218 -0.00857413 0.0
3 138 232.55 297.243 3.0698 0.098981 0.0049117 0.0
3 139 231.824 297.592 3.1214 0.0382024 -0.171109 0.0
3 140 231.072 297.86 3.07674 0.102251 0.0578714 0.0
3 141 230.302 298.088 3.12783 0.0757816 -0.142901 0.0
3 142 229.498 298.152 3.08564 0.00822733 -0.194435 0.0
3 143 228.743 298.45 3.13315 0.0935764 0.099936 0.0
3 144 227.963 298.608 3.09281 0.0754229 0.161059 0.0
3 145 227.16 298.693 3.14067 0.0747545 0.164296 0.0
3 146 226.416 299.021 3.10088 0.0742433 0.232214 0.0
3 147 225.626 299.151 3.15205 0.0844959 0.145811 0.0
3 148 224.839 299.289 3.11225 0.0246199 -0.0604245 0.0
3 149 224.036 299.343 3.1639 0.0651966 -0.057411 0.0
3 150 223.267 299.575 3.11802 0.0607329 0.0991214 0.0
3 151 222.48 299.724 3.17522 0.067675 -0.200923 0.0
3 152 221.727 300.005 3.13012 0.00464547 0.0434227 0.0
3 153 220.994 300.32 3.18603 -0.0465106 -0.51963 0.0
3 154 220.254 300.632 3.14052 0.0463063 0.103942 0.0
3 155 219.504 300.902 3.1935 0.306138 0.412635 0.0
3 156 218.795 301.292 3.15397 0.0272541 -0.0947907 0.0
3 157 218.017 301.489 3.19942 0.171381 0.113641 0.0
3 158 217.254 301.733 3.17104 0.100663 -0.134957 0.0
3 159 216.441 301.764 3.19938 0.0730489 -0.260831 0.0
3 160 215.661 301.898 3.1863 0.151634 -0.0862877 0.0
4 1 268.06 294.692 1.21001 0.0865338 0.0254109 0.0
4 2 267.303 294.964 1.27887 0.169048 0.076124 0.0
4 3 266.603 295.351 1.29771 0.0434221 -0.0195146 0.0
4 4 265.838 295.598 1.38121 0.049258 -0.159788 0.0
4 5 265.262 296.229 1.37947 0.158698 0.202607 0.0
4 6 264.48 296.444 1.46876 0.030296 -0.160262 0.0
4 7 263.757 296.785 1.45706 -0.00465917 -0.153363 0.0
4 8 263.081 297.219 1.54496 0.0587603 -0.0710575 0.0
4 9 262.383 297.609 1.5267 0.107175 0.0716033 0.0
4 10 261.746 298.103 1.61247 -0.174033 -0.376636 0.0
4 11 261.041 298.481 1.59382 -0.152619 -0.308017 0.0
4 12 260.461 299.061 1.675 0.0995285 0.0657152 0.0
4 13 259.718 299.378 1.65606 -0.0367054 -0.132662 0.0
4 14 259.02 299.768 1.7238 0.039105 0.0123931 0.0
4 15 258.225 299.954 1.70147 -0.0246407 -0.0631199 0.0
4 16 257.532 300.358 1.75865 -0.0412663 -0.146278 0.0
4 17 256.738 300.548 1.74164 -0.114838 -0.233475 0.0
4 18 256.038 300.938 1.78337 0.0245051 0.0325984 0.0
4 19 255.378 301.397 1.77361 0.0344081 0.0418348 0.0
4 20 254.638 301.714 1.79244 -0.102585 -0.179745 0.0
4 21 254.008 302.224 1.79227 0.0931107 0.168357 0.0
4 22 253.26 302.529 1.78949 0.11814 0.209201 0.0
4 23 252.613 303.01 1.8037 0.0104832 0.0549441 0.0
4 24 251.901 303.373 1.77749 -0.0894959 -0.0707449 0.0
4 25 251.291 303.914 1.80761 -0.372604 -0.483037 0.0
4 26 250.488 304.122 1.76023 -0.207596 -0.216451 0.0
4 27 249.867 304.648 1.7959 -0.176843 -0.0915517 0.0
4 28 249.152 305.008 1.74025 -0.071769 0.0445225 0.0
4 29 248.353 305.178 1.77554 -0.180042 -0.155429 0.0
4 30 247.635 305.525 1.7194 0.0265006 0.310006 0.0
4 31 246.879 305.803 1.75167 -0.0897534 -0.0151389 0.0
4 32 246.14 306.104 1.69421 -0.255443 -0.5074 0.0
4 33 245.456 306.541 1.72129 -0.0421749 0.0141499 0.0
4 34 244.629 306.637 1.66559 0.0632418 0.228415 0.0
4 35 243.938 307.046 1.69399 -0.0179761 -0.043641 0.0
4 36 243.164 307.286 1.63456 -0.113673 -0.266987 0.0
4 37 242.51 307.765 1.66652 0.0858346 0.0754764 0.0
4 38 241.811 308.149 1.61333 0.0117627 -0.0819868 0.0
4 39 241.072 308.462 1.64685 -0.0633711 -0.294483 0.0
4 40 240.349 308.808 1.59615 -0.0693235 -0.234177 0.0
4 41 239.561 308.981 1.63 0.0230147 -0.0516039 0.0
4 42 238.811 309.254 1.58076 -0.0487281 -0.149505 0.0
4 43 238.001 309.326 1.61879 0.0272957 0.0258664 0.0
4 44 237.264 309.66 1.57898 -0.00605531 0.0530995 0.0
4 45 236.473 309.794 1.62009 0.012038 0.000541371 0.0
4 46 235.701 309.993 1.58858 -0.161904 -0.605142 0.0
4 47 234.944 310.266 1.6335 0.0982009 0.277058 0.0
4 48 234.184 310.493 1.60319 0.0722053 0.098086 0.0
4 49 233.459 310.863 1.65562 -0.0385622 -0.153601 0.0
4 50 232.678 311.026 1.63099 0.0518313 0.00182561 0.0
4 51 231.866 311.04 1.68546 -0.0285768 -0.241718 0.0
4 52 231.095 311.241 1.6682 0.0329591 -0.246708 0.0
4 53 230.333 311.504 1.72139 0.110255 0.150537 0.0
4 54 229.53 311.569 1.70408 0.0946766 0.0841103 0.0
4 55 228.748 311.72 1.76047 0.0478057 -0.439893 0.0
4 56 227.942 311.776 1.73422 0.0757781 0.157676 0.0
4 57 227.151 311.629 1.78984 0.0458067 -0.0779433 0.0
4 58 226.357 311.532 1.75631 0.0115942 0.361109 0.0
4 59 225.574 311.381 1.81245 0.0468989 -0.207102 0.0
4 60 224.79 311.184 1.77745 0.0891108 -0.0609925 0.0
4 61 223.983 311.202 1.82719 0.0127267 -0.219428 0.0
4 62 223.19 311.314 1.78723 0.0750134 -0.0490458 0.0
4 63 222.425 311.573 1.83313 0.0590646 0.0385312 0.0
4 64 221.604 311.543 1.78129 0.0702574 0.0054838 0.0
4 65 220.875 311.977 1.82352 0.0133973 -0.138018 0.0
4 66 220.071 312.003 1.76815 0.0106598 -0.172275 0.0
4 67 219.283 312.172 1.80364 0.000152945 -0.130481 0.0
4 68 218.472 312.066 1.74208 0.0134244 0.162892 0.0
4 69 217.682 312.242 1.77272 0.000768581 0.0706077 0.0
4 70 216.884 312.261 1.70561 -0.0383116 -0.15426 0.0
4 71 216.078 312.258 1.73247 -0.0212573 -0.159393 0.0
4 72 215.295 312.44 1.66355 -0.0753886 -0.300178 0.0
4 73 214.484 312.412 1.68708 -0.0176544 0.0994181 0.0
4 74 213.729 312.765 1.61627 -0.0272536 -0.0265728 0.0
4 75 212.926 312.78 1.64527 -0.0601448 0.0167205 0.0
4 76 212.133 312.88 1.57186 -0.0480559 -0.179083 0.0