# 5176000
#nworms:1455
#np:44
1 1 66.6394 183.686 3.19587 0.0709476 0.0611131 0.0
1 2 66.5049 184.499 3.19996 -0.018123 0.0255093 0.0
1 3 66.7286 185.282 3.18779 0.151263 -0.00916246 0.0
1 4 66.6277 186.095 3.19993 -0.0787997 0.0382164 0.0
1 5 66.8204 186.88 3.17866 -0.0774283 0.0323866 0.0
1 6 66.884 187.677 3.19989 0.079387 0.0315101 0.0
1 7 67.14 188.446 3.1717 -0.266521 0.0587365 0.0
1 8 67.254 189.235 3.19997 0.0708817 0.088061 0.0
1 9 67.4312 190.02 3.16625 -0.0701597 0.0130132 0.0
1 10 67.5417 190.809 3.19952 0.0218316 0.0404578 0.0
1 11 67.5201 191.62 3.16355 -0.0716216 0.0802525 0.0
1 12 67.8043 192.387 3.19923 0.0363514 0.0807054 0.0
1 13 67.9122 193.175 3.16303 0.0289155 0.0879566 0.0
1 14 68.0644 193.965 3.19992 0.17545 0.0369965 0.0
1 15 68.2666 194.739 3.16275 -0.0281196 0.110435 0.0
1 16 68.2706 195.55 3.19987 -0.0646663 0.0912711 0.0
1 17 68.5053 196.323 3.16128 0.196288 0.0401791 0.0
1 18 68.5557 197.124 3.19998 0.191966 0.0541781 0.0
1 19 68.5519 197.924 3.16004 0.0213142 0.0987529 0.0
1 20 68.6985 198.718 3.19978 0.108573 -0.00109583 0.0
1 21 68.6636 199.52 3.16088 0.131342 0.0585782 0.0
1 22 68.655 200.316 3.19939 -0.0444492 0.0340953 0.0
1 23 68.8608 201.108 3.16095 0.177014 0.0475385 0.0
1 24 68.7949 201.91 3.19858 -0.186845 0.0195795 0.0
1 25 68.781 202.709 3.1586 -0.108278 -0.0621626 0.0
1 26 68.8966 203.504 3.19978 -0.216294 0.0223794 0.0
1 27 69.0597 204.286 3.15741 -0.0871484 0.0250722 0.0
1 28 69.2606 205.061 3.19941 0.0778292 0.0490019 0.0
1 29 69.6069 205.789 3.15639 -0.317738 0.159828 0.0
1 30 69.7154 206.594 3.19823 0.0114382 0.127568 0.0
1 31 70.0061 207.337 3.15819 -0.198308 0.135714 0.0
1 32 70.3267 208.073 3.19941 -0.00898296 0.0432569 0.0
1 33 70.6126 208.816 3.16088 -0.093455 0.0853926 0.0
1 34 70.9209 209.558 3.19978 0.289783 -0.163212 0.0
1 35 71.1108 210.337 3.16118 0.120928 -0.0423796 0.0
1 36 71.3807 211.09 3.19921 0.06509 -0.0878115 0.0
1 37 71.6182 211.853 3.16226 -0.0202057 0.0130732 0.0
1 38 71.8979 212.603 3.19957 0.115413 -0.110185 0.0
1 39 72.2375 213.328 3.16641 -0.0477985 -0.0480658 0.0
1 40 72.3895 214.125 3.19931 0.160389 -0.0383341 0.0
1 41 72.8053 214.821 3.17401 -0.201231 0.0655397 0.0
1 42 72.9873 215.609 3.19841 0.0156507 0.0877965 0.0
1 43 73.3872 216.308 3.18349 0.107987 0.0822716 0.0
1 44 73.5961 217.089 3.19927 0.0337138 0.0672694 0.0
2 1 180.998 62.3837 1.14063 -0.0568073 0.12972 0.0
2 2 181.752 62.654 1.13423 0.0296914 0.0585189 0.0
2 3 182.471 63.0079 1.13808 0.0639548 -0.195858 0.0
2 4 183.2 63.3346 1.12915 0.108405 -0.0681237 0.0
2 5 183.96 63.5931 1.13636 -0.0084985 0.0273369 0.0
2 6 184.692 63.9123 1.12615 0.129143 -0.091134 0.0
2 7 185.459 64.1512 1.13494 0.039492 0.00528924 0.0
2 8 186.185 64.4898 1.12207 0.013516 0.186043 0.0
2 9 186.995 64.601 1.1346 0.0763781 -0.0602428 0.0
2 10 187.714 64.9624 1.12285 0.0453625 0.0230218 0.0
2 11 188.479 65.2028 1.13896 0.0728858 -0.0909597 0.0
2 12 189.246 65.429 1.12723 -0.00966242 0.0881362 0.0
2 13 189.986 65.7407 1.14586 -0.0344609 0.154346 0.0
2 14 190.751 65.978 1.13064 -0.0753693 0.0777509 0.0
2 15 191.537 66.1371 1.15134 0.00946282 -0.0565604 0.0
2 16 192.348 66.1015 1.13441 -0.0437608 -0.25421 0.0
2 17 193.12 66.3742 1.15531 -0.0174578 0.0896277 0.0
2 18 193.929 66.3455 1.1351 -0.0235801 -0.00813436 0.0
2 19 194.719 66.4612 1.15307 -0.0125304 0.0415926 0.0
2 20 195.516 66.5455 1.13146 0.049125 -0.170732 0.0
2 21 196.319 66.5434 1.14615 -0.0228435 0.113683 0.0
2 22 197.112 66.4229 1.12714 0.0912729 -0.118767 0.0
2 23 197.903 66.3134 1.14132 -0.0203139 0.0054877 0.0
2 24 198.679 66.0889 1.1288 0.054009 -0.144601 0.0
2 25 199.473 66.0045 1.14201 -0.00328308 -0.0833898 0.0
2 26 200.278 65.9585 1.13511 0.0358892 -0.196276 0.0
2 27 201.03 65.6382 1.14486 0.00701258 -0.0704656 0.0
2 28 201.816 65.5079 1.14317 0.158664 0.256762 0.0
2 29 202.597 65.3171 1.14797 -0.000665073 0.0294263 0.0
2 30 203.372 65.1373 1.14749 0.0676871 -0.100161 0.0
2 31 204.154 64.9441 1.14647 0.00139057 0.0392702 0.0
2 32 204.948 64.8593 1.1458 0.0492705 -0.0431229 0.0
2 33 205.754 64.8918 1.14329 0.00425722 0.0287533 0.0
2 34 206.538 64.6859 1.14066 0.009149 -0.157564 0.0
2 35 207.331 64.6262 1.13703 0.0232352 -0.0986144 0.0
2 36 208.135 64.5959 1.13389 0.0497049 0.0487225 0.0
2 37 208.923 64.4605 1.13018 0.0936051 0.154221 0.0
2 38 209.704 64.2793 1.12551 0.0619857 0.041702 0.0
2 39 210.476 64.0744 1.12319 0.0484114 -0.0392663 0.0
2 40 211.25 63.8667 1.11549 0.0987696 0.100266 0.0
2 41 212.01 63.6121 1.11236 0.0650123 -0.00789355 0.0
2 42 212.827 63.5935 1.09704 0.123397 0.0987236 0.0
2 43 213.564 63.2265 1.08734 0.0222745 -0.0816094 0.0
2 44 214.369 63.1647 1.06468 0.166278 0.167307 0.0
3 1 306.738 258.01 2.93576 -0.0847253 -0.0111068 0.0
3 2 306.269 258.666 2.92819 0.0379713 -0.0021494 0.0
3 3 305.936 259.394 2.89037 0.168567 0.12083 0.0
3 4 305.612 260.126 2.89005 0.0120139 0.00231572 0.0
3 5 305.266 260.844 2.83921 -0.0903363 0.00463963 0.0
3 6 304.93 261.574 2.84475 -0.0219182 -0.00732105 0.0
3 7 304.452 262.221 2.79073 -0.048953 0.0396144 0.0
3 8 303.977 262.862 2.80106 -0.0894127 -0.0642403 0.0
3 9 303.417 263.439 2.74815 -0.110618 -0.0229488 0.0
3 10 302.958 264.095 2.76595 -0.0929727 -0.0339021 0.0
3 11 302.457 264.721 2.71659 -0.0515548 -0.0200701 0.0
3 12 301.881 265.279 2.74114 0.169573 0.227411 0.0
3 13 301.283 265.811 2.69759 0.035928 0.0472055 0.0
3 14 300.738 266.398 2.73079 0.0264251 0.062769 0.0
3 15 300.215 267.006 2.69619 -0.00766652 0.0231606 0.0
3 16 299.782 267.68 2.73538 -0.104638 -0.0788499 0.0
3 17 299.38 268.371 2.70781 0.0445559 0.0837968 0.0
3 18 298.95 269.046 2.74841 -0.00438291 -0.0434171 0.0
3 19 298.407 269.642 2.72379 -0.0574201 0.010862 0.0
3 20 297.913 270.266 2.77199 0.00698032 -0.0177359 0.0
3 21 297.599 271.022 2.75288 0.188041 0.138738 0.0
3 22 297.097 271.641 2.79772 0.139239 0.102151 0.0
3 23 296.667 272.322 2.77807 0.110764 0.0797003 0.0
3 24 296.131 272.915 2.8261 -0.0200404 -0.00815586 0.0
3 25 295.566 273.484 2.80801 -0.118881 -0.112183 0.0
3 26 295.046 274.091 2.85738 -0.138078 -0.094782 0.0
3 27 294.639 274.787 2.83965 0.0315795 0.0243901 0.0
3 28 294.126 275.4 2.89101 0.0407438 0.0587752 0.0
3 29 293.676 276.064 2.87623 -0.0287837 -0.0153144 0.0
3 30 293.273 276.754 2.92876 -0.0496224 -0.0199933 0.0
3 31 292.896 277.462 2.90995 -0.0371345 -0.0191045 0.0
3 32 292.494 278.151 2.9662 0.124055 0.0522896 0.0
3 33 292.276 278.939 2.94887 -0.195736 -0.110608 0.0
3 34 291.861 279.621 3.0057 0.186977 0.098504 0.0
3 35 291.415 280.289 2.99086 -0.0457498 -0.0327611 0.0
3 36 290.891 280.893 3.0525 -0.0507061 -0.038073 0.0
3 37 290.37 281.499 3.03877 -0.00851512 -0.00154587 0.0
3 38 289.942 282.181 3.09665 -0.125876 -0.0589578 0.0
3 39 289.397 282.768 3.0842 0.150707 0.119965 0.0
3 40 288.931 283.422 3.13856 0.0241659 0.0245515 0.0
3 41 288.402 284.019 3.1307 0.143038 0.132341 0.0
3 42 287.894 284.643 3.17095 -0.0315937 -0.0325126 0.0
3 43 287.44 285.297 3.17368 -0.106173 -0.0541745 0.0
3 44 287.277 286.122 3.19988 -0.111501 -0.0181271 0.0
4 1 208.076 103.963 3.19983 0.00667519 -0.0120694 0.0
4 2 207.387 103.554 3.19944 -0.0500515 -0.141281 0.0
4 3 206.687 103.166 3.19981 0.142079 -0.128164 0.0
4 4 206.058 102.659 3.19957 0.0542651 -0.0305769 0.0
4 5 205.328 102.321 3.19996 0.0544597 -0.0702297 0.0
4 6 204.655 101.886 3.19984 0.0862372 -0.14697 0.0
4 7 204.041 101.368 3.2 -0.0298747 -0.105787 0.0
4 8 203.454 100.825 3.19989 0.071519 -0.0999198 0.0
4 9 202.811 100.35 3.19999 -0.267885 0.139054 0.0
4 10 202.253 99.7705 3.19962 -0.0596615 -0.0337812 0.0
4 11 201.637 99.261 3.19969 0.0437723 -0.127595 0.0
4 12 200.967 98.8168 3.19872 0.0506477 -0.129542 0.0
4 13 200.386 98.2596 3.19873 0.170324 -0.063841 0.0
4 14 199.721 97.8124 3.19889 -0.0421902 -0.000117153 0.0
4 15 199.059 97.3617 3.19856 -0.0089719 0.087373 0.0
4 16 198.342 96.9993 3.19905 0.0559964 -0.0713884 0.0
4 17 197.703 96.5088 3.19842 -0.00873793 0.0555446 0.0
4 18 196.984 96.1513 3.19967 0.0195278 -0.0100695 0.0
4 19 196.24 95.8596 3.19975 -0.0382921 0.0128859 0.0
4 20 195.464 95.644 3.19991 0.0402634 0.0736332 0.0
4 21 194.733 95.3185 3.19932 0.130539 -0.198128 0.0
4 22 194.023 94.947 3.19915 0.0082814 -0.118488 0.0
4 23 193.34 94.5292 3.19925 -0.0564427 -0.00633504 0.0
4 24 192.729 94.0052 3.19935 0.0349289 -0.0382118 0.0
4 25 192.063 93.5621 3.19868 0.060865 -0.155745 0.0
4 26 191.291 93.3068 3.19869 0.0223524 -0.00727054 0.0
4 27 190.641 92.8311 3.196 0.136975 -0.155063 0.0
4 28 189.932 92.4635 3.19797 -0.0516422 0.0328181 0.0
4 29 189.272 92.0056 3.19793 0.0453781 0.0652002 0.0
4 30 188.54 91.6756 3.19957 -0.0303211 -0.0317069 0.0
4 31 187.961 91.0853 3.19901 -0.00621352 0.101325 0.0
4 32 187.225 90.7646 3.2 -0.0370201 0.143571 0.0
4 33 186.517 90.3859 3.19877 -0.0259388 0.200807 0.0
4 34 185.722 90.2198 3.2 0.00441328 0.0057819 0.0
4 35 184.984 89.9197 3.19576 -0.0053026 0.0263092 0.0
4 36 184.251 89.5878 3.19938 -0.0606975 0.00445131 0.0
4 37 183.58 89.1487 3.19123 0.0638702 0.0546261 0.0
4 38 182.913 88.7078 3.19662 -0.186293 0.194351 0.0
4 39 182.249 88.2574 3.18975 -0.0195345 0.165224 0.0
4 40 181.56 87.8538 3.19582 -0.0345886 0.0792495 0.0
4 41 180.829 87.5176 3.19118 0.00868399 0.0504898 0.0
4 42 180.134 87.1274 3.19746 0.113736 0.0503553 0.0
4 43 179.443 86.7176 3.19647 0.152293 -0.189092 0.0
4 44 178.767 86.2945 3.19999 0.0596172 0.070068 0.0
5 1 218.213 162.725 3.19991 -0.0848885 -0.142048 0.0
5 2 217.404 162.746 3.18102 -0.023197 -0.036523 0.0
5 3 216.63 162.958 3.1964 -0.0571509 0.0567253 0.0
5 4 215.838 163.076 3.16942 -0.0502127 -0.0785275 0.0
5 5 215.036 163.116 3.19799 -0.0489044 -0.0739961 0.0
5 6 214.237 163.075 3.16433 -0.0362876 -0.0495897 0.0
5 7 213.441 162.989 3.19973 -0.0717086 0.0775362 0.0
5 8 212.659 162.819 3.16177 -0.0588878 -0.00818116 0.0
5 9 211.888 162.596 3.19926 -0.0504855 0.0665644 0.0
5 10 211.181 162.212 3.15811 -0.0611239 0.066611 0.0
5 11 210.451 161.889 3.19953 -0.0657105 0.0740077 0.0
5 12 209.688 161.64 3.15681 -0.0154344 -0.106316 0.0
5 13 208.916 161.436 3.19816 -0.0416841 0.060295 0.0
5 14 208.124 161.31 3.15641 -0.098084 0.284892 0.0
5 15 207.348 161.117 3.19619 -0.0471337 -0.0180087 0.0
5 16 206.588 160.862 3.15443 -0.0279529 0.0375736 0.0
5 17 205.822 160.641 3.19163 -0.0338496 0.0563095 0.0
5 18 205.049 160.42 3.1515 -0.0859493 0.151636 0.0
5 19 204.316 160.1 3.19 0.00506061 0.0165692 0.0
5 20 203.627 159.684 3.15193 -0.086375 0.149619 0.0
5 21 202.877 159.403 3.18758 -0.0355414 0.0538523 0.0
5 22 202.123 159.131 3.15058 -0.0626205 0.0634252 0.0
5 23 201.323 159.025 3.18537 0.00475072 -0.00797387 0.0
5 24 200.556 158.8 3.15102 -0.00924772 -0.0595577 0.0
5 25 199.772 158.639 3.18521 -0.0621349 0.0667002 0.0
5 26 198.999 158.433 3.15356 0.00605417 -0.164274 0.0
5 27 198.203 158.33 3.18853 -0.0667172 0.0700213 0.0
5 28 197.423 158.157 3.15386 -0.0298328 -0.0170991 0.0
5 29 196.653 157.933 3.18918 -0.0606313 -0.0204282 0.0
5 30 195.861 157.809 3.15399 -0.0116287 -0.00068324 0.0
5 31 195.069 157.703 3.19142 -0.0503375 -0.130172 0.0
5 32 194.309 157.418 3.15751 -0.0540917 0.00313873 0.0
5 33 193.509 157.353 3.19529 -0.0980673 0.0722548 0.0
5 34 192.723 157.204 3.161 -0.115855 0.117531 0.0
5 35 191.928 157.111 3.19774 -0.0874987 0.0658429 0.0
5 36 191.132 157.021 3.16207 -0.082176 0.189544 0.0
5 37 190.354 156.826 3.1968 -0.10707 0.133323 0.0
5 38 189.571 156.663 3.16456 0.0179017 -0.18155 0.0
5 39 188.84 156.311 3.19781 -0.0511012 -0.0742228 0.0
5 40 188.053 156.153 3.17212 -0.015565 -0.070164 0.0
5 41 187.291 155.907 3.19994 -0.0110359 -0.189476 0.0
5 42 186.548 155.607 3.18379 0.00505387 -0.0566604 0.0
5 43 185.79 155.355 3.19999 -0.158965 0.0468844 0.0
5 44 185.05 155.044 3.19402 0.0253933 -0.113545 0.0
6 1 144.787 142.249 3.19986 -0.0196233 -0.08692 0.0
6 2 144.542 143.013 3.18082 0.0943574 0.0493047 0.0
6 3 144.132 143.708 3.19465 0.0651171 -0.00455288 0.0
6 4 143.93 144.491 3.1685 -0.0323682 -0.00288745 0.0
6 5 143.593 145.215 3.19509 0.181984 0.0718915 0.0
6 6 143.284 145.955 3.16239 -0.0337469 0.025635 0.0
6 7 143.033 146.714 3.19436 -0.223245 -0.0420847 0.0
6 8 142.726 147.455 3.15663 -0.0922868 0.0075003 0.0
6 9 142.549 148.24 3.19317 -0.115788 -0.0284301 0.0
6 10 142.485 149.039 3.15253 -0.0922606 0.000445229 0.0
6 11 142.458 149.838 3.19202 -0.0181899 -0.0227588 0.0
6 12 142.262 150.622 3.14834 0.0704643 0.0202797 0.0
6 13 142.371 151.436 3.18813 0.101691 -0.0206425 0.0
6 14 142.161 152.218 3.14486 0.117484 0.0118225 0.0
6 15 142.14 153.019 3.18939 -0.112972 -0.0587655 0.0
6 16 142.053 153.813 3.14475 -0.0819027 -0.0112771 0.0
6 17 141.947 154.609 3.18931 0.0984142 -0.0591663 0.0
6 18 141.978 155.41 3.14754 -0.202684 -0.00934991 0.0
6 19 141.984 156.21 3.19035 -0.0484226 -0.0255224 0.0
6 20 142.132 157.001 3.15144 0.08867 -0.0273143 0.0
6 21 142.131 157.804 3.18992 0.097662 -0.0323984 0.0
6 22 142.246 158.595 3.15232 -0.144795 -0.0030138 0.0
6 23 142.212 159.403 3.19098 0.165793 -0.0520105 0.0
6 24 142.444 160.18 3.15453 0.0536401 -0.0138485 0.0
6 25 142.525 160.973 3.19051 -0.215919 0.000505064 0.0
6 26 142.652 161.765 3.15693 -0.111891 0.0135842 0.0
6 27 142.729 162.559 3.19359 0.195617 -0.0813559 0.0
6 28 142.701 163.365 3.15869 -0.270389 0.00144396 0.0
6 29 142.937 164.145 3.19545 -0.151458 -0.0343668 0.0
6 30 143.002 164.938 3.15587 -0.0975421 -0.0316293 0.0
6 31 143.006 165.742 3.19484 -0.110754 -0.0407867 0.0
6 32 143.035 166.538 3.15675 -0.15472 -0.0112236 0.0
6 33 143.018 167.339 3.19792 -0.0267004 -0.032149 0.0
6 34 143.14 168.133 3.15929 -0.270729 -0.00591125 0.0
6 35 143.155 168.932 3.19907 -0.0897177 -0.0268812 0.0
6 36 143.234 169.729 3.16068 -0.0943204 -0.0200776 0.0
6 37 143.213 170.529 3.19923 0.00196601 -0.0101641 0.0
6 38 143.225 171.328 3.16546 0.00107958 -0.0221933 0.0
6 39 143.432 172.113 3.19967 0.0470016 -0.0243336 0.0
6 40 143.448 172.912 3.17159 -0.0350479 -0.0132702 0.0
6 41 143.478 173.711 3.19999 0.0518553 -0.0265999 0.0
6 42 143.446 174.512 3.18262 -0.159807 0.0148148 0.0
6 43 143.269 175.298 3.2 0.075958 -0.0374993 0.0
6 44 143.185 176.091 3.19385 0.105763 0.0676457 0.0
7 1 175.722 175.012 0.330066 -0.0160042 -0.0786251 0.0
7 2 174.986 174.7 0.32848 -0.0271053 -0.0254763 0.0
7 3 174.27 174.338 0.351025 -0.021861 -0.0688727 0.0
7 4 173.525 174.049 0.360148 -0.00104008 -0.0986387 0.0
7 5 172.806 173.692 0.406169 -0.064167 0.0258558 0.0
7 6 172.042 173.449 0.421984 -0.0541471 0.0024857 0.0
7 7 171.276 173.227 0.465874 -0.127132 0.219039 0.0
7 8 170.486 173.078 0.469003 -0.0513852 -0.0576806 0.0
7 9 169.719 172.857 0.505104 -0.0955314 0.0593817 0.0
7 10 168.946 172.64 0.492021 -0.0898984 0.0437364 0.0
7 11 168.174 172.446 0.525558 -0.0704331 -0.0717657 0.0
7 12 167.361 172.393 0.495176 -0.0917586 0.0115175 0.0
7 13 166.609 172.112 0.532348 -0.115751 0.0558996 0.0
7 14 165.857 171.836 0.499598 -0.0685284 -0.0798892 0.0
7 15 165.152 171.452 0.540227 -0.160284 0.120022 0.0
7 16 164.466 171.038 0.506254 -0.057365 -0.116778 0.0
7 17 163.718 170.741 0.545163 -0.115714 0.00441015 0.0
7 18 163.048 170.293 0.510116 -0.036777 -0.171988 0.0
7 19 162.324 169.955 0.551399 -0.14175 0.0377033 0.0
7 20 161.558 169.705 0.512368 -0.119745 0.0237437 0.0
7 21 160.838 169.355 0.55233 -0.157466 0.0752396 0.0
7 22 160.153 168.938 0.515674 -0.131491 0.0424733 0.0
7 23 159.385 168.68 0.556187 -0.152527 0.0600653 0.0
7 24 158.776 168.123 0.520751 -0.157452 0.0948494 0.0
7 25 158.016 167.852 0.557402 -0.0466433 -0.110532 0.0
7 26 157.378 167.345 0.519206 -0.0449256 -0.0975011 0.0
7 27 156.591 167.126 0.555178 -0.0927487 -0.00260446 0.0
7 28 155.899 166.727 0.513581 -0.0699355 -0.0254821 0.0
7 29 155.241 166.268 0.555495 -0.000249748 -0.127298 0.0
7 30 154.487 165.972 0.513328 -0.110064 0.055023 0.0
7 31 153.841 165.497 0.548031 0.0106164 -0.122229 0.0
7 32 153.162 165.072 0.503269 -0.0864609 0.0309029 0.0
7 33 152.542 164.565 0.527788 -0.127375 0.07347 0.0
7 34 152.015 163.955 0.480883 0.0669267 -0.121675 0.0
7 35 151.416 163.432 0.492981 0.0414676 -0.0997418 0.0
7 36 150.809 162.902 0.437728 -0.0285677 -0.00509342 0.0
7 37 150.107 162.515 0.436418 -0.143108 0.155239 0.0
7 38 149.385 162.169 0.376107 0.0371317 -0.126717 0.0
7 39 148.725 161.715 0.360835 0.0141223 -0.119111 0.0
7 40 148.142 161.163 0.29565 -0.137394 0.0935386 0.0
7 41 147.449 160.756 0.265854 0.0307299 -0.151972 0.0
7 42 146.869 160.197 0.215854 -0.00564768 -0.0831072 0.0
7 43 146.118 159.874 0.190848 -0.0755715 -0.0102982 0.0
7 44 145.524 159.333 0.148987 0.000289626 -0.0953487 0.0
8 1 91.4265 219.495 0.000235438 0.035342 0.0999706 0.0
8 2 91.7078 220.26 0.0169151 -0.0478145 0.00367795 0.0
8 3 92.1769 220.906 0.00405899 -0.266866 0.292958 0.0
8 4 92.5757 221.605 0.0272114 0.145717 -0.0455423 0.0
8 5 93.1136 222.203 0.000551336 -0.052711 0.0924234 0.0
8 6 93.602 222.835 0.0285842 0.0620129 0.0208212 0.0
8 7 94.0563 223.496 0.000947198 0.0181181 0.05857 0.0
8 8 94.3817 224.231 0.0331708 0.00641216 0.0521542 0.0
8 9 94.924 224.84 0.00279157 -0.006039 0.0749903 0.0
8 10 95.1682 225.625 0.0352361 0.115551 -0.0392058 0.0
8 11 95.5702 226.306 0.00164234 -0.015104 0.076993 0.0
8 12 96.1507 226.892 0.0347103 0.137852 -0.0462864 0.0
8 13 96.4652 227.633 0.00227989 -0.00934584 0.0704037 0.0
8 14 96.8641 228.325 0.0337286 -0.0259367 -0.000282431 0.0
8 15 97.1792 229.064 0.00360821 -0.0875143 0.0983927 0.0
8 16 97.5722 229.758 0.0372886 0.0357204 0.00440874 0.0
8 17 97.9139 230.485 0.00572604 0.022032 0.0245292 0.0
8 18 98.3637 231.148 0.0398597 0.100882 -0.0345473 0.0
8 19 98.8396 231.79 0.00885094 0.117005 -0.0120906 0.0
8 20 99.2692 232.467 0.039776 0.0774705 -0.00794134 0.0
8 21 99.8586 233.023 0.00406116 -0.0253715 0.0817159 0.0
8 22 100.29 233.698 0.0365605 0.0550773 0.0593287 0.0
8 23 100.836 234.288 0.00272664 -0.0286639 0.0625597 0.0
8 24 101.247 234.978 0.0388876 -0.00746752 0.0806361 0.0
8 25 101.772 235.585 0.00304744 -0.0140802 0.0569336 0.0
8 26 102.207 236.256 0.0397439 -0.0952775 0.130432 0.0
8 27 102.675 236.906 0.00356774 0.156815 -0.0637104 0.0
8 28 103.121 237.569 0.0413082 0.145348 0.0234396 0.0
8 29 103.618 238.196 0.00422761 0.0546414 0.0724065 0.0
8 30 104.117 238.822 0.0417108 0.0342844 0.0469319 0.0
8 31 104.725 239.35 0.00196657 0.204649 -0.0723619 0.0
8 32 105.272 239.93 0.0409286 0.249858 -0.109268 0.0
8 33 105.829 240.509 0.00250028 0.152311 -0.0538348 0.0
8 34 106.175 241.252 0.0384635 0.215521 -0.0927888 0.0
8 35 106.681 241.864 0.00111037 0.0162295 0.0134257 0.0
8 36 107.253 242.434 0.0370356 0.087851 0.0425922 0.0
8 37 107.697 243.101 0.00201 -0.0356778 0.109218 0.0
8 38 108.15 243.759 0.0329515 0.191468 0.00356471 0.0
8 39 108.498 244.484 0.00188497 0.0342372 0.0934023 0.0
8 40 108.939 245.151 0.0288788 0.0213235 0.10262 0.0
8 41 109.427 245.785 0.000680355 0.121649 0.0412052 0.0
8 42 109.914 246.419 0.0180035 0.163167 0.0293383 0.0
8 43 110.468 246.999 7.78098e-07 0.185516 0.0343344 0.0
8 44 110.915 247.667 0.00818541 -0.00169122 0.179623 0.0
9 1 261.92 289.018 0.397879 -0.0572993 -0.0309777 0.0
9 2 261.265 289.526 0.441623 -0.0371946 0.0742855 0.0
9 3 260.461 289.669 0.460481 -0.0197836 0.0572118 0.0
9 4 259.753 290.045 0.512244 -0.0778161 -0.0635743 0.0
9 5 258.99 290.291 0.517285 -0.071275 -0.0641437 0.0
9 6 258.372 290.854 0.566355 -0.040089 -0.00734945 0.0
9 7 257.58 291.046 0.557615 -0.0551572 -0.0277782 0.0
9 8 256.863 291.39 0.604147 -0.0324717 -0.0113255 0.0
9 9 256.113 291.681 0.584189 0.00762753 0.0934702 0.0
9 10 255.409 292.06 0.629919 0.0521881 0.148734 0.0
9 11 254.71 292.45 0.600304 0.0707234 0.197333 0.0
9 12 253.973 292.766 0.643694 0.0674714 0.167598 0.0
9 13 253.261 293.129 0.610167 -0.0364329 -0.0600934 0.0
9 14 252.526 293.449 0.648502 0.0864776 0.157711 0.0
9 15 251.797 293.77 0.613658 0.0421779 0.102008 0.0
9 16 251.072 294.12 0.650533 -0.0323619 -0.169463 0.0
9 17 250.31 294.364 0.612069 0.0251658 0.0383053 0.0
9 18 249.487 294.352 0.649138 0.018546 -0.074484 0.0
9 19 248.738 294.656 0.608992 0.0118905 -0.0336964 0.0
9 20 247.954 294.813 0.642989 -0.0401412 -0.367636 0.0
9 21 247.146 294.811 0.598257 -0.00730148 -0.209352 0.0
9 22 246.364 294.988 0.623941 0.0194868 0.0310725 0.0
9 23 245.553 294.936 0.574604 0.00904408 -0.0724138 0.0
9 24 244.776 295.169 0.600133 0.0159581 -0.0976463 0.0
9 25 243.973 295.177 0.55266 0.0454977 0.116787 0.0
9 26 243.182 295.301 0.580131 0.0342739 0.0523077 0.0
9 27 242.389 295.398 0.531955 0.0202084 -0.0743571 0.0
9 28 241.6 295.537 0.564841 0.00150493 -0.121973 0.0
9 29 240.84 295.793 0.520569 -0.00300932 -0.139094 0.0
9 30 240.066 295.998 0.558925 -0.033897 -0.235664 0.0
9 31 239.266 296.076 0.519796 -0.00103069 -0.0652583 0.0
9 32 238.476 296.189 0.564842 -0.00918313 -0.0245146 0.0
9 33 237.674 296.229 0.531326 -0.00559905 0.0692984 0.0
9 34 236.875 296.252 0.569625 -0.0155084 -0.0889179 0.0
9 35 236.077 296.126 0.545767 -0.0241706 0.155738 0.0
9 36 235.278 296.155 0.580942 -0.0117373 -0.154638 0.0
9 37 234.486 295.953 0.560608 0.01251 -0.367387 0.0
9 38 233.68 296.088 0.584525 -0.0157138 -0.0107036 0.0
9 39 232.886 295.973 0.563879 -0.000601336 -0.228944 0.0
9 40 232.081 296.106 0.579618 -0.011695 -0.17911 0.0
9 41 231.287 295.933 0.560773 -0.0260287 0.215828 0.0
9 42 230.486 295.956 0.565523 -0.0224045 -0.0403988 0.0
9 43 229.687 295.948 0.544588 -0.0319865 0.000522163 0.0
9 44 228.894 295.787 0.534663 -0.0216653 -0.0301921 0.0
10 1 211.966 260.705 1.68029 -0.0145386 -0.247153 0.0
10 2 212.761 260.945 1.66455 -0.0199663 -0.126321 0.0
10 3 213.555 260.904 1.67665 -0.0191307 -0.096359 0.0
10 4 214.358 260.817 1.65791 -0.00490261 0.0487773 0.0
10 5 215.156 260.89 1.68069 -0.00512338 -0.0792999 0.0
10 6 215.955 260.926 1.6595 0.0101618 -0.172502 0.0
10 7 216.756 260.941 1.68174 0.0100428 -0.0251248 0.0
10 8 217.554 261.014 1.64659 0.0136461 -0.0593033 0.0
10 9 218.353 261.061 1.68196 0.0212155 0.0202677 0.0
10 10 219.152 261.124 1.64066 0.0110531 0.0408482 0.0
10 11 219.914 261.414 1.68083 0.0024051 0.108135 0.0
10 12 220.723 261.44 1.63897 0.0431838 -0.0798375 0.0
10 13 221.498 261.64 1.68004 0.0244217 -0.0146929 0.0
10 14 222.289 261.78 1.64299 0.0555806 -0.101607 0.0
10 15 223.014 262.153 1.68383 0.0148419 0.00634961 0.0
10 16 223.812 262.276 1.64943 0.0189029 0.00889277 0.0
10 17 224.564 262.548 1.68736 0.0191726 -0.0174443 0.0
10 18 225.296 262.88 1.65556 0.0376571 -0.0465721 0.0
10 19 225.963 263.327 1.70364 0.0899746 -0.138471 0.0
10 20 226.674 263.694 1.68077 0.0301227 -0.0327977 0.0
10 21 227.321 264.169 1.72727 -0.000669835 0.00595701 0.0
10 22 228.055 264.502 1.70706 0.0985777 -0.1429 0.0
10 23 228.718 264.948 1.74257 -0.0616081 0.097334 0.0
10 24 229.322 265.479 1.72197 -0.0164661 0.0266297 0.0
10 25 229.999 265.905 1.74165 0.113509 -0.141264 0.0
10 26 230.568 266.481 1.72058 -0.0443295 0.0674245 0.0
10 27 231.303 266.827 1.72765 0.0405654 -0.032951 0.0
10 28 231.886 267.386 1.71688 0.0839117 -0.110977 0.0
10 29 232.599 267.761 1.72491 -0.0464055 0.0879929 0.0
10 30 233.231 268.249 1.72127 0.0900355 -0.111796 0.0
10 31 233.945 268.622 1.73846 0.0091746 -0.0122401 0.0
10 32 234.548 269.153 1.72299 0.0947552 -0.111195 0.0
10 33 235.264 269.525 1.73799 0.0422212 -0.0595088 0.0
10 34 235.855 270.071 1.71121 0.0328927 -0.0317321 0.0
10 35 236.548 270.48 1.71998 -0.0624654 0.0701395 0.0
10 36 237.139 271.022 1.68831 0.0869561 -0.0996338 0.0
10 37 237.743 271.542 1.6957 0.00341019 0.00391302 0.0
10 38 238.352 272.065 1.68756 0.192322 -0.235927 0.0
10 39 239.01 272.518 1.71964 0.0594449 -0.0599785 0.0
10 40 239.746 272.85 1.69647 0.082306 -0.0545935 0.0
10 41 240.396 273.316 1.72995 -0.00393971 0.0692364 0.0
10 42 241.11 273.684 1.71027 0.0815903 -0.0663894 0.0
10 43 241.738 274.187 1.73423 0.116586 -0.115659 0.0
10 44 242.435 274.581 1.71926 2.46964e-05 0.0514772 0.0
11 1 206.381 15.0365 0.00205288 0.0970802 -0.0274093 0.0
11 2 207.182 15.0699 0.0197745 0.00531898 -0.0794721 0.0
11 3 207.966 14.823 0.0705452 0.0873594 0.0936026 0.0
11 4 208.765 14.8407 0.0741369 0.0348364 -0.0994202 0.0
11 5 209.566 14.8249 0.138419 0.0414534 0.0115137 0.0
11 6 210.361 14.9363 0.129961 0.0465736 -0.048505 0.0
11 7 211.165 14.8497 0.194393 0.00613176 -0.0125387 0.0
11 8 211.959 14.97 0.176617 0.0515569 -0.567271 0.0
11 9 212.752 15.0484 0.236935 0.00685262 -0.0995109 0.0
11 10 213.549 15.1333 0.209988 -0.0226142 0.211965 0.0
11 11 214.336 15.269 0.268491 -0.0199607 0.0542661 0.0
11 12 215.145 15.2235 0.235453 0.0262497 -0.0250093 0.0
11 13 215.934 15.349 0.29471 0.00849311 -0.109497 0.0
11 14 216.725 15.4831 0.252912 0.0795444 -0.218701 0.0
11 15 217.533 15.3774 0.308883 0.04665 -0.0485044 0.0
11 16 218.323 15.5921 0.265901 0.0672827 0.304684 0.0
11 17 219.126 15.5127 0.317263 0.089349 0.098134 0.0
11 18 219.924 15.5641 0.276804 0.0829048 -0.198207 0.0
11 19 220.727 15.5577 0.328088 0.12124 -0.0136867 0.0
11 20 221.521 15.4262 0.285471 0.152361 0.247053 0.0
11 21 222.284 15.1808 0.338478 0.0984287 -0.091945 0.0
11 22 223.048 14.9403 0.295188 0.0508561 -0.169633 0.0
11 23 223.839 14.8035 0.344715 0.132548 0.209399 0.0
11 24 224.614 14.5917 0.300688 0.143016 0.264665 0.0
11 25 225.43 14.6321 0.351444 0.0562245 -0.0554164 0.0
11 26 226.211 14.48 0.305864 0.123289 0.259111 0.0
11 27 227.027 14.51 0.352723 0.0485009 0.0674448 0.0
11 28 227.781 14.1766 0.300978 -0.018894 -0.31741 0.0
11 29 228.586 14.1469 0.337674 0.00441302 -0.124503 0.0
11 30 229.369 13.9829 0.279229 -0.000431323 0.157678 0.0
11 31 230.144 13.7793 0.306673 0.0184988 -0.000486623 0.0
11 32 230.931 13.6441 0.239115 -0.0250571 0.254793 0.0
11 33 231.693 13.3798 0.253709 -0.0883104 -0.281948 0.0
11 34 232.509 13.3919 0.181559 -0.0903111 0.083547 0.0
11 35 233.28 13.1732 0.197833 -0.0802199 -0.082888 0.0
11 36 234.069 13.0486 0.132573 -0.0829509 0.196008 0.0
11 37 234.878 13.046 0.152414 -0.0809846 0.170711 0.0
11 38 235.653 13.2799 0.100863 -0.0464013 -0.0311266 0.0
11 39 236.395 13.5691 0.125767 -0.00614385 -0.0713467 0.0
11 40 237.048 14.0601 0.0874941 -0.13203 0.112535 0.0
11 41 237.79 14.351 0.110997 -0.0973008 0.104485 0.0
11 42 238.462 14.8046 0.0814451 -0.136046 -0.0441059 0.0
11 43 239.262 14.9749 0.0895769 -0.0249604 0.0308134 0.0
11 44 239.931 15.4353 0.067008 -0.229281 0.0218247 0.0
12 1 135.476 224.714 0.132805 0.167799 0.0183759 0.0
12 2 135.331 225.522 0.1419 0.261379 0.120065 0.0
12 3 134.855 226.187 0.17555 -0.0831641 -0.0762788 0.0
12 4 134.617 226.953 0.176684 -0.144552 -0.0883837 0.0
12 5 134.299 227.688 0.220049 0.0118063 -0.0333746 0.0
12 6 133.888 228.376 0.212712 0.171412 0.0729643 0.0
12 7 133.524 229.088 0.255021 -0.20777 -0.155486 0.0
12 8 133.025 229.721 0.238231 -0.0528557 -0.0645021 0.0
12 9 132.655 230.432 0.277711 0.201259 0.103582 0.0
12 10 132.177 231.076 0.251097 0.135762 0.057586 0.0
12 11 131.77 231.766 0.28396 0.0354326 -0.00573422 0.0
12 12 131.252 232.379 0.250761 -0.0757173 -0.0925368 0.0
12 13 130.807 233.045 0.277989 0.0674838 0.0213384 0.0
12 14 130.286 233.653 0.238318 -0.0251858 -0.0509659 0.0
12 15 129.731 234.23 0.261979 0.0567018 0.0182809 0.0
12 16 129.237 234.861 0.219758 -0.0480993 -0.0660551 0.0
12 17 128.591 235.353 0.240775 -0.00561078 -0.0303735 0.0
12 18 128.128 236.014 0.201016 0.0185896 0.00937483 0.0
12 19 127.554 236.571 0.224869 -0.0913217 -0.0899547 0.0
12 20 127.014 237.164 0.191468 -0.173783 -0.160999 0.0
12 21 126.536 237.806 0.21826 0.0519156 0.0491188 0.0
12 22 125.993 238.397 0.18977 0.190338 0.150122 0.0
12 23 125.56 239.073 0.225261 0.0327208 0.0516498 0.0
12 24 125.098 239.726 0.199752 0.00717587 0.0386907 0.0
12 25 124.632 240.377 0.241709 -0.0690813 0.00172437 0.0
12 26 124.286 241.106 0.216794 0.0207404 0.0580813 0.0
12 27 123.782 241.735 0.258683 -0.156996 -0.0306816 0.0
12 28 123.405 242.443 0.23058 0.0308172 0.0731401 0.0
12 29 123.076 243.173 0.271555 0.109674 0.11562 0.0
12 30 122.85 243.946 0.243284 0.0590926 0.0864728 0.0
12 31 122.366 244.608 0.282784 -0.0339532 0.0528791 0.0
12 32 122.177 245.399 0.252057 -0.0963458 0.0135081 0.0
12 33 121.799 246.106 0.289208 0.0299373 0.0692164 0.0
12 34 121.486 246.843 0.263008 0.128666 0.107482 0.0
12 35 121.192 247.588 0.297267 0.14888 0.103615 0.0
12 36 120.836 248.306 0.268514 -0.0240996 0.027174 0.0
12 37 120.611 249.081 0.304336 -0.154878 -0.0381619 0.0
12 38 120.255 249.798 0.275916 0.0533981 0.0443789 0.0
12 39 119.813 250.469 0.307574 0.0579301 0.0598252 0.0
12 40 119.561 251.241 0.283162 -0.00322853 0.00226758 0.0
12 41 119.06 251.88 0.30878 -0.0825295 -0.0287537 0.0
12 42 118.713 252.6 0.284605 0.0809088 0.0345123 0.0
12 43 118.406 253.342 0.293271 -0.0336123 -0.00853424 0.0
12 44 118.234 254.128 0.269678 0.00919692 0.000460799 0.0
13 1 135.755 139.22 1.2656 -0.00357445 -0.0213215 0.0
13 2 136.197 138.556 1.24204 -0.0773085 -0.0117896 0.0
13 3 136.661 137.9 1.25169 -0.0498835 -0.0334651 0.0
13 4 137.061 137.21 1.23691 0.0919698 0.097368 0.0
13 5 137.391 136.475 1.24975 -0.128722 -0.0548745 0.0
13 6 137.873 135.832 1.23068 0.0856616 0.108898 0.0
13 7 138.313 135.166 1.25882 -0.0282948 0.0296903 0.0
13 8 138.738 134.486 1.23834 -0.0339706 0.0451755 0.0
13 9 139.203 133.836 1.27165 0.0994574 0.12436 0.0
13 10 139.656 133.176 1.24599 0.0598686 0.10469 0.0
13 11 140.082 132.5 1.27671 -0.148299 -0.0338546 0.0
13 12 140.569 131.861 1.24526 -0.135187 -0.0347734 0.0
13 13 140.94 131.148 1.27924 -0.0740111 0.00235659 0.0
13 14 141.271 130.423 1.2473 -0.115612 -0.0276328 0.0
13 15 141.727 129.753 1.2835 0.0358446 0.0493888 0.0
13 16 141.969 128.984 1.25437 0.0620137 0.0480893 0.0
13 17 142.259 128.242 1.29392 -0.216689 -0.0545355 0.0
13 18 142.496 127.473 1.26731 -0.0613147 -0.000109471 0.0
13 19 142.904 126.778 1.31591 -0.10756 -0.0203916 0.0
13 20 143.184 126.026 1.29219 -0.160636 -0.0415577 0.0
13 21 143.353 125.242 1.34487 -0.116899 -0.036756 0.0
13 22 143.475 124.45 1.31971 -0.17704 -0.0350041 0.0
13 23 143.548 123.655 1.37 -0.0628539 -0.0322706 0.0
13 24 143.54 122.85 1.34395 0.0355499 -0.0204054 0.0
13 25 143.669 122.06 1.3858 -0.114831 -0.0356892 0.0
13 26 143.861 121.281 1.35427 -0.0126117 -0.0304359 0.0
13 27 143.946 120.484 1.38971 -0.167712 -0.04245 0.0
13 28 144.034 119.691 1.35396 0.0161101 -0.0252816 0.0