# 10736000
#nworms:1455
#np:44
1 1 226.74 191.563 0.000317117 -0.45055 -0.0430571 0.0
1 2 226.033 191.734 0.000244428 -0.680891 0.751249 0.0
1 3 225.168 191.922 2.20825e-05 -0.150921 1.21301 0.0
1 4 224.415 191.602 2.47234e-05 -0.761597 -0.464381 0.0
1 5 223.621 191.537 1.54871e-05 -0.669588 0.85959 0.0
1 6 222.842 191.313 3.34559e-05 0.282972 0.0388259 0.0
1 7 222.133 190.939 1.78075e-05 -0.427811 -0.147158 0.0
1 8 221.688 190.191 3.44078e-05 1.29775 -0.151618 0.0
1 9 220.888 189.97 3.11137e-07 -0.30162 -0.369722 0.0
1 10 220.366 189.303 0.0 0.0664381 -0.687023 0.0
1 11 219.616 188.984 3.35848e-05 0.597996 0.832465 0.0
1 12 219.178 188.237 0.000228596 0.0823184 -0.377522 0.0
1 13 218.483 187.858 0.000173544 0.173639 -0.463115 0.0
1 14 217.851 187.37 0.000120314 -0.465562 0.455855 0.0
1 15 217.13 187.031 8.84779e-05 -0.827923 0.139497 0.0
1 16 216.335 186.782 0.000101695 0.0197784 0.119813 0.0
1 17 215.519 186.792 0.000181657 -0.653642 0.841131 0.0
1 18 214.738 186.681 4.64528e-05 -1.02413 1.14164 0.0
1 19 213.978 186.34 0.000101883 -0.3788 0.248014 0.0
1 20 213.347 185.885 6.09886e-05 0.0215795 0.28336 0.0
1 21 212.754 185.306 0.00017388 -1.1883 0.206886 0.0
1 22 212.274 184.697 7.43459e-05 -0.212178 1.34592 0.0
1 23 212.065 183.859 0.000401099 0.386175 -0.0174319 0.0
1 24 211.448 183.35 0.000462468 -1.1821 0.728113 0.0
1 25 210.828 182.831 0.000231289 -0.804918 -0.286139 0.0
1 26 210.12 182.425 0.000148374 -0.31014 -0.629593 0.0
1 27 209.367 182.173 7.01025e-05 0.294188 0.684174 0.0
1 28 208.553 182.064 6.92439e-05 -1.35093 0.044322 0.0
1 29 207.928 181.507 2.95453e-05 -0.332955 0.394757 0.0
1 30 207.173 181.22 5.47327e-05 -0.804235 -0.19381 0.0
1 31 206.477 180.833 0.000106306 0.831475 -0.447855 0.0
1 32 205.651 180.68 9.40067e-05 -0.403097 0.365121 0.0
1 33 205.031 180.192 6.98783e-05 0.123431 0.277371 0.0
1 34 204.224 180.026 0.000146965 -0.486214 -0.382023 0.0
1 35 203.462 179.901 7.40017e-05 0.308226 0.0682048 0.0
1 36 202.683 179.568 6.32599e-05 -0.672581 -0.272333 0.0
1 37 201.905 179.563 1.38531e-05 0.304751 0.315544 0.0
1 38 201.092 179.642 4.13511e-05 -0.871304 -0.689126 0.0
1 39 200.319 179.39 6.85951e-05 0.425023 0.447183 0.0
1 40 199.504 179.352 0.000128498 -0.695207 0.445705 0.0
1 41 198.749 179.635 4.72105e-05 0.291808 -0.304419 0.0
1 42 197.966 179.852 4.05835e-05 -0.0202604 0.135394 0.0
1 43 197.161 179.853 0.000288975 -0.160233 0.167111 0.0
1 44 196.52 180.495 0.0 -0.911641 0.367826 0.0
2 1 272.293 168.372 3.19988 -0.538207 -0.242089 0.0
2 2 273.088 168.295 3.19979 -0.533184 0.278082 0.0
2 3 273.862 168.021 3.19994 -0.087744 0.687441 0.0
2 4 274.595 167.748 3.19987 -0.746293 0.511059 0.0
2 5 275.19 167.115 3.1999 -0.624644 1.16625 0.0
2 6 275.971 166.937 3.19998 -1.10226 0.245806 0.0
2 7 276.668 166.547 3.19992 0.017351 1.19829 0.0
2 8 277.446 166.307 3.19993 -0.127741 -0.831706 0.0
2 9 278.257 166.273 3.19978 0.451238 -0.0786418 0.0
2 10 279.049 166.42 3.19998 -0.55151 -0.522847 0.0
2 11 279.854 166.345 3.19996 -0.961642 0.236818 0.0
2 12 280.644 166.197 3.19989 -1.41976 -0.194552 0.0
2 13 281.422 166.126 3.19964 -0.652162 0.359575 0.0
2 14 282.224 166.134 3.19916 0.253422 -0.422128 0.0
2 15 282.975 165.772 3.19954 -0.660827 -0.893862 0.0
2 16 283.793 165.727 3.19994 0.275455 0.233383 0.0
2 17 284.551 166.066 3.19998 0.296772 -0.33149 0.0
2 18 285.25 166.392 3.19982 0.378035 -0.357057 0.0
2 19 285.98 166.759 3.2 -0.00496727 -0.167512 0.0
2 20 286.749 166.909 3.19992 0.349673 0.422553 0.0
2 21 287.496 167.253 3.2 -0.0105392 0.604032 0.0
2 22 288.215 167.583 3.19996 0.559272 0.0501228 0.0
2 23 288.865 168.104 3.19999 0.55073 -0.113703 0.0
2 24 289.552 168.47 3.19998 -1.75187 -0.795922 0.0
2 25 290.074 169.164 3.19998 -1.24642 0.203127 0.0
2 26 291.008 169.185 3.19999 -1.14047 -0.20558 0.0
2 27 291.556 169.787 3.19996 -0.104411 -1.12355 0.0
2 28 292.257 170.197 3.19994 0.153195 -0.133806 0.0
2 29 292.958 170.565 3.19996 0.24916 0.536561 0.0
2 30 293.756 170.762 3.19996 0.88686 0.0278031 0.0
2 31 294.506 171.001 3.19997 0.934683 0.223654 0.0
2 32 295.276 171.265 3.19984 -0.316789 0.251945 0.0
2 33 295.906 171.799 3.19996 0.399053 0.139388 0.0
2 34 296.503 172.322 3.19997 -0.465702 -0.0391807 0.0
2 35 296.976 172.981 3.19975 1.07569 0.000157954 0.0
2 36 297.67 173.412 3.19966 1.13185 -0.784904 0.0
2 37 298.291 173.883 3.1985 -0.471811 0.972326 0.0
2 38 298.652 174.666 3.19968 0.206659 -0.518205 0.0
2 39 299.121 175.271 3.2 0.282801 -0.072198 0.0
2 40 299.702 175.868 3.19994 0.50932 -1.3935 0.0
2 41 300.05 176.586 3.19995 0.423641 -0.601239 0.0
2 42 300.586 177.211 3.19989 0.813842 0.11126 0.0
2 43 300.729 178.036 3.19992 -0.543436 -0.239631 0.0
2 44 301.172 178.73 3.1997 -0.323794 -0.856527 0.0
3 1 195.593 214.295 1.07474 -0.0258649 0.0068032 0.0
3 2 194.759 214.103 1.07501 0.100305 0.3836 0.0
3 3 194.186 213.525 1.06572 -1.04845 0.706934 0.0
3 4 193.534 213.06 1.06921 0.38979 0.0600492 0.0
3 5 192.811 212.724 1.06791 -0.870164 0.632605 0.0
3 6 192.088 212.37 1.06887 -0.0612089 -0.44335 0.0
3 7 191.279 212.244 1.06985 -0.277044 0.285764 0.0
3 8 190.511 212.02 1.07282 -0.140564 0.189595 0.0
3 9 189.695 212.043 1.06999 -0.528106 0.111752 0.0
3 10 188.915 212.07 1.06648 0.104878 0.30721 0.0
3 11 188.113 211.94 1.06752 -0.41073 0.259384 0.0
3 12 187.319 212.138 1.07309 -0.530983 1.00099 0.0
3 13 186.564 212.362 1.07398 0.0368567 -0.300213 0.0
3 14 185.764 212.515 1.07412 -0.0696902 -0.116249 0.0
3 15 185.002 212.709 1.06827 -0.246363 -0.170188 0.0
3 16 184.226 212.903 1.0711 -0.236291 0.664062 0.0
3 17 183.442 213.049 1.06782 0.107552 -0.41633 0.0
3 18 182.639 213.045 1.07119 -0.149315 -0.382105 0.0
3 19 181.841 212.966 1.06833 -0.152354 -0.116915 0.0
3 20 181.125 212.518 1.07208 -0.292535 -0.521354 0.0
3 21 180.32 212.427 1.06946 -0.488319 -0.205071 0.0
3 22 179.579 212.12 1.07128 -0.163318 0.0951904 0.0
3 23 178.769 212.02 1.07139 -0.511624 -0.234727 0.0
3 24 178.064 211.611 1.07511 -0.1872 -0.0225512 0.0
3 25 177.262 211.469 1.07766 -0.648609 0.164347 0.0
3 26 176.532 211.181 1.08295 -0.295347 0.476516 0.0
3 27 175.68 211.221 1.07893 -0.447132 -0.673631 0.0
3 28 174.992 210.762 1.0735 -0.477464 0.0365649 0.0
3 29 174.247 210.496 1.0732 -0.597325 0.216955 0.0
3 30 173.49 210.201 1.06834 0.256982 -0.0263716 0.0
3 31 172.68 210.145 1.07258 -0.195701 -0.192052 0.0
3 32 171.889 210.158 1.06707 0.126328 -0.263599 0.0
3 33 171.087 210.116 1.07096 0.00840351 0.226184 0.0
3 34 170.28 210.125 1.07108 -0.0343577 0.150194 0.0
3 35 169.496 209.98 1.06774 0.169588 0.843456 0.0
3 36 168.703 209.966 1.07007 -0.513963 0.37563 0.0
3 37 167.906 210.181 1.07298 -0.507478 -0.162342 0.0
3 38 167.098 210.146 1.06923 -0.429799 -0.466419 0.0
3 39 166.333 210.433 1.06819 -0.127147 0.64671 0.0
3 40 165.522 210.479 1.06957 0.0424205 0.698525 0.0
3 41 164.803 210.856 1.06689 -0.530193 0.287289 0.0
3 42 164.073 211.19 1.06872 -0.240064 0.185931 0.0
3 43 163.367 211.545 1.07051 -0.288714 -0.10928 0.0
3 44 162.522 211.623 1.07233 -0.373736 -0.156935 0.0
4 1 220.854 246.157 2.12454 0.110382 -0.26099 0.0
4 2 221.213 246.873 2.11673 0.354382 -0.328015 0.0
4 3 221.551 247.598 2.12422 -0.070505 -0.202563 0.0
4 4 221.84 248.345 2.12514 0.383343 -0.314446 0.0
4 5 222.086 249.11 2.13613 -0.402423 -0.142024 0.0
4 6 222.172 249.911 2.13745 0.622945 -0.318592 0.0
4 7 222.248 250.703 2.10977 -0.759101 -0.166461 0.0
4 8 222.34 251.501 2.04294 0.868737 -0.289776 0.0
4 9 222.265 252.292 1.93227 0.433382 -0.211773 0.0
4 10 222.285 253.08 1.76842 0.0262996 -0.269608 0.0
4 11 222.053 253.833 1.56452 0.327761 -0.225471 0.0
4 12 221.929 254.583 1.35209 -0.127746 -0.257194 0.0
4 13 221.755 255.355 1.15908 -0.573781 -0.413276 0.0
4 14 221.407 256.068 1.09698 0.675339 0.0882215 0.0
4 15 221.204 256.86 1.04962 -0.022328 -0.231834 0.0
4 16 220.705 257.5 1.05983 0.412707 0.0684114 0.0
4 17 220.166 258.088 1.05766 0.173027 -0.10147 0.0
4 18 219.498 258.551 1.064 0.227572 -0.0205697 0.0
4 19 218.748 258.838 1.06732 0.00609451 -0.417303 0.0
4 20 217.967 259.026 1.06197 0.0340904 -0.509513 0.0
4 21 217.166 259.084 1.07157 0.0583406 -0.106801 0.0
4 22 216.366 259.043 1.06412 0.0188351 -0.268965 0.0
4 23 215.57 259.225 1.07124 0.0734988 0.0830305 0.0
4 24 214.772 259.16 1.06333 0.0218671 0.132843 0.0
4 25 213.966 259.252 1.07076 0.0695732 -0.766561 0.0
4 26 213.177 259.063 1.06578 0.0493352 -0.357991 0.0
4 27 212.382 258.984 1.07042 0.0168448 -0.196866 0.0
4 28 211.589 258.876 1.05966 0.0330523 -0.218016 0.0
4 29 210.8 258.699 1.06301 0.052468 -0.148655 0.0
4 30 209.991 258.801 1.04897 0.0468481 -0.4924 0.0
4 31 209.193 258.643 1.05264 0.110504 0.0797759 0.0
4 32 208.394 258.648 1.06337 0.0961812 -1.01612 0.0
4 33 207.615 258.961 1.06857 0.0508125 -0.661858 0.0
4 34 206.8 258.795 1.07394 0.118271 -0.714777 0.0
4 35 206.013 259.044 1.06777 0.123116 -0.648896 0.0
4 36 205.206 258.92 1.06649 0.196516 0.2793 0.0
4 37 204.408 259.074 1.05423 0.176823 0.248235 0.0
4 38 203.609 258.905 1.05399 0.201822 0.0250669 0.0
4 39 202.802 259.149 1.06182 0.156821 -0.169691 0.0
4 40 202.014 259.068 1.06476 0.210139 -0.0762938 0.0
4 41 201.248 258.728 1.06097 0.159363 -0.259034 0.0
4 42 200.441 258.754 1.06441 0.0644927 0.752816 0.0
4 43 199.648 258.87 1.06301 0.237361 0.647659 0.0
4 44 198.911 259.231 1.06289 0.203298 1.10056 0.0
5 1 78.1947 215.121 0.00106582 -0.668519 -0.207938 0.0
5 2 77.8677 215.929 0.00013258 0.483458 -0.814761 0.0
5 3 78.0812 216.721 0.000232229 -1.09412 0.672657 0.0
5 4 77.9861 217.533 0.00102058 -0.330263 0.340284 0.0
5 5 78.0592 218.339 0.000874561 0.256242 -0.706292 0.0
5 6 77.9165 219.137 0.00026636 0.589534 -0.0860831 0.0
5 7 78.0216 219.933 0.000251352 0.408189 0.439296 0.0
5 8 77.9116 220.756 5.64279e-05 0.386826 0.525208 0.0
5 9 78.0041 221.552 0.000104387 -0.127439 -0.489421 0.0
5 10 78.2531 222.304 1.27121e-06 -0.179053 -1.26522 0.0
5 11 78.2181 223.119 0.000295581 -0.631283 0.88384 0.0
5 12 78.4719 223.887 0.000112338 -0.160238 -0.423642 0.0
5 13 78.8346 224.608 0.00046718 -0.332094 0.611773 0.0
5 14 78.9445 225.421 0.000219307 0.521953 0.355888 0.0
5 15 79.2347 226.152 0.000244793 0.181853 0.439278 0.0
5 16 79.4185 226.93 0.000566062 -0.756823 0.165511 0.0
5 17 80.0065 227.564 0.000282064 0.403316 -0.389174 0.0
5 18 80.166 228.351 0.000367907 0.515643 -0.775055 0.0
5 19 80.4846 229.094 5.16728e-05 -0.110719 0.347597 0.0
5 20 80.2032 229.935 7.93938e-05 -0.295814 0.164918 0.0
5 21 80.4799 230.69 0.000171107 0.492882 0.153403 0.0
5 22 80.6059 231.508 0.000117965 0.0542064 0.279608 0.0
5 23 80.4971 232.298 9.71905e-05 -0.129228 -0.523498 0.0
5 24 80.0766 233.014 3.28017e-05 0.27022 0.147098 0.0
5 25 79.9237 233.801 7.79249e-05 0.455947 0.0673215 0.0
5 26 79.7577 234.584 8.86679e-05 0.590576 -0.134196 0.0
5 27 79.9248 235.366 0.000133151 -0.386763 0.668356 0.0
5 28 79.6583 236.179 7.38484e-05 -0.604932 0.00468348 0.0
5 29 79.7676 236.967 4.27016e-05 0.253875 0.488225 0.0
5 30 79.8843 237.773 2.75144e-05 -0.501234 -0.622921 0.0
5 31 80.239 238.487 3.38934e-06 -0.281229 -0.670231 0.0
5 32 80.1491 239.349 7.51165e-05 -0.0428039 -0.0988708 0.0
5 33 80.5577 240.06 1.38504e-05 0.0341073 -0.745152 0.0
5 34 80.8462 240.805 0.000178009 -0.0188586 -0.332035 0.0
5 35 81.077 241.576 4.45092e-05 -0.0879377 -0.896327 0.0
5 36 81.2876 242.316 0.00034393 0.00676849 0.518967 0.0
5 37 81.6453 243.064 3.8924e-05 0.135045 0.073221 0.0
5 38 82.1736 243.67 0.000101996 0.541911 -0.367973 0.0
5 39 82.4429 244.452 6.20718e-07 -0.150652 -0.469758 0.0
5 40 82.8122 245.133 2.56531e-05 0.189914 -0.091506 0.0
5 41 83.1527 245.877 1.52855e-05 -0.673908 1.09509 0.0
5 42 83.0502 246.72 2.83816e-05 -0.421364 -0.656158 0.0
5 43 83.1964 247.496 5.5572e-05 -0.614 -0.263284 0.0
5 44 83.3317 248.274 3.61247e-06 0.237298 0.0168152 0.0
6 1 290.003 78.8057 1.04892 0.337592 0.106805 0.0
6 2 289.515 79.5123 1.05213 -0.458484 -0.235222 0.0
6 3 289.397 80.2871 1.05024 0.33634 0.00495124 0.0
6 4 289.289 81.0865 1.05422 -0.217709 -0.213851 0.0
6 5 289.123 81.8732 1.05186 0.164012 -0.0786719 0.0
6 6 289.282 82.6868 1.05354 0.081774 -9.64886e-05 0.0
6 7 289.203 83.4724 1.06443 0.0673204 -0.359699 0.0
6 8 289.094 84.2678 1.07241 -0.366169 0.20411 0.0
6 9 289.139 85.0653 1.07826 0.53239 0.298833 0.0
6 10 289.038 85.8734 1.07204 -0.0168505 -0.0779485 0.0
6 11 289.326 86.659 1.06981 -0.171943 0.157105 0.0
6 12 289.241 87.4558 1.06379 0.287633 0.48469 0.0
6 13 289.248 88.2606 1.06364 0.195823 0.10609 0.0
6 14 289.21 89.0481 1.06442 0.00938885 0.347887 0.0
6 15 288.958 89.8214 1.06225 -0.0297153 0.016316 0.0
6 16 289.159 90.6497 1.06386 -0.344804 0.270232 0.0
6 17 288.922 91.4187 1.06649 -0.449804 -0.432237 0.0
6 18 288.814 92.2065 1.07052 -0.0454161 0.105246 0.0
6 19 288.532 92.9646 1.06745 0.40723 0.542092 0.0
6 20 288.469 93.7723 1.07909 -0.636327 0.553757 0.0
6 21 288.248 94.5518 1.07777 -0.264233 0.131074 0.0
6 22 288.222 95.358 1.07119 0.00511217 -0.280793 0.0
6 23 288.186 96.1486 1.06402 0.032022 -0.207857 0.0
6 24 288.263 96.94 1.06153 0.125405 0.328025 0.0
6 25 288.329 97.7422 1.06778 -0.146725 0.227198 0.0
6 26 288.514 98.5197 1.06388 -0.260473 0.436688 0.0
6 27 288.75 99.2856 1.07058 -0.146851 -0.133304 0.0
6 28 289.01 100.041 1.06559 -0.286959 0.11776 0.0
6 29 289.273 100.801 1.05204 0.430857 0.113682 0.0
6 30 289.218 101.626 1.05715 0.808661 0.0466932 0.0
6 31 289.425 102.408 1.0578 0.358433 0.0244909 0.0
6 32 289.251 103.225 1.06365 0.132251 0.0365286 0.0
6 33 289.557 103.99 1.06001 0.105683 0.534387 0.0
6 34 289.5 104.795 1.05597 -0.0974619 0.0836252 0.0
6 35 289.513 105.599 1.05865 0.296751 0.274796 0.0
6 36 289.674 106.389 1.05721 -0.241478 -0.273151 0.0
6 37 289.808 107.174 1.06146 -0.101328 0.580987 0.0
6 38 290.009 107.943 1.06276 0.0758096 -0.0388227 0.0
6 39 290.089 108.756 1.06619 -0.344418 0.484012 0.0
6 40 290.338 109.514 1.06362 -0.0458231 0.167696 0.0
6 41 290.589 110.272 1.06628 -0.204656 0.32547 0.0
6 42 291.025 110.967 1.06821 -0.301784 0.164816 0.0
6 43 291.368 111.672 1.05971 0.35753 0.401275 0.0
6 44 291.76 112.397 1.06407 0.32246 0.281071 0.0
7 1 284.829 223.501 1.04957 0.679346 -1.07065 0.0
7 2 285.0 224.289 1.07243 1.05785 -0.297454 0.0
7 3 285.155 225.062 1.07495 0.245424 -0.96768 0.0
7 4 285.199 225.872 1.07384 -0.568667 -0.806354 0.0
7 5 285.356 226.652 1.07348 0.123807 -1.05391 0.0
7 6 285.44 227.45 1.07427 0.133737 -0.965234 0.0
7 7 285.371 228.245 1.07063 -0.460127 -0.948386 0.0
7 8 285.35 229.045 1.06549 -0.182353 -0.36937 0.0
7 9 285.509 229.836 1.06487 0.0800374 0.343405 0.0
7 10 285.649 230.622 1.06656 0.313395 0.0611602 0.0
7 11 285.561 231.43 1.06591 0.268582 0.38622 0.0
7 12 285.725 232.216 1.06597 0.0500674 0.152182 0.0
7 13 285.975 232.978 1.06741 -0.290039 -0.0531293 0.0
7 14 286.387 233.668 1.06478 0.031167 0.183066 0.0
7 15 286.59 234.455 1.06523 0.133864 -0.309142 0.0
7 16 286.889 235.193 1.06106 -0.57413 -0.262409 0.0
7 17 287.255 235.897 1.06154 0.38696 0.0581734 0.0
7 18 287.528 236.644 1.05881 0.621046 -0.408024 0.0
7 19 288.004 237.318 1.06756 0.687034 -0.361778 0.0
7 20 288.202 238.094 1.07035 0.0750144 -0.103079 0.0
7 21 288.234 238.912 1.0749 -0.853381 -0.0256784 0.0
7 22 288.483 239.662 1.06071 -0.242755 -0.388112 0.0
7 23 288.83 240.418 1.06254 -0.124966 0.380967 0.0
7 24 288.707 241.241 1.05538 0.203339 -0.0323731 0.0
7 25 288.788 242.019 1.06187 0.174921 -0.630449 0.0
7 26 289.13 242.794 1.06207 0.214461 0.0478255 0.0
7 27 289.082 243.581 1.06843 0.289389 0.20756 0.0
7 28 289.169 244.393 1.07521 0.695724 -0.117484 0.0
7 29 288.937 245.162 1.0767 -0.054035 -0.126752 0.0
7 30 288.876 245.969 1.07602 0.589054 -0.0382889 0.0
7 31 288.54 246.706 1.07249 0.123603 -0.350962 0.0
7 32 288.23 247.439 1.06363 0.23224 0.229974 0.0
7 33 287.508 247.941 1.06084 -0.312986 -0.77678 0.0
7 34 287.431 248.816 1.05755 -0.613516 0.637774 0.0
7 35 286.771 249.366 1.05969 0.522431 -0.034492 0.0
7 36 286.571 250.172 1.06077 -0.137071 -0.411923 0.0
7 37 286.168 250.847 1.06507 -0.0543602 -0.220571 0.0
7 38 285.771 251.567 1.06492 0.505694 0.280539 0.0
7 39 285.099 252.056 1.06999 0.300757 0.566965 0.0
7 40 284.793 252.827 1.06832 0.620791 0.320795 0.0
7 41 284.336 253.477 1.07302 -0.493974 0.464882 0.0
7 42 283.59 253.882 1.0721 -0.494879 -0.29816 0.0
7 43 283.199 254.603 1.08217 -0.916494 -0.206233 0.0
7 44 282.579 255.117 1.08198 -0.871153 -0.635979 0.0
8 1 222.098 308.96 3.19985 0.41052 0.668619 0.0
8 2 222.548 309.627 3.19998 -0.338326 -0.19355 0.0
8 3 223.339 309.966 3.19998 -0.3161 0.911623 0.0
8 4 223.939 310.448 3.19993 0.985891 -0.0797659 0.0
8 5 224.708 310.72 3.19976 -0.729094 0.933538 0.0
8 6 225.399 311.109 3.19975 0.72105 -0.0753751 0.0
8 7 226.16 311.403 3.19995 0.663173 0.337582 0.0
8 8 226.965 311.426 3.19997 0.276457 -0.361751 0.0
8 9 227.765 311.161 3.19995 0.530618 -0.527018 0.0
8 10 228.468 310.877 3.1999 0.686296 0.752096 0.0
8 11 229.26 310.641 3.19993 -0.624274 0.00172691 0.0
8 12 230.029 310.489 3.19995 0.24744 -0.400112 0.0
8 13 230.81 310.282 3.19997 -0.336361 0.789393 0.0
8 14 231.604 310.172 3.19997 0.268273 1.00229 0.0
8 15 232.408 310.116 3.19996 -0.223127 -0.0671614 0.0
8 16 233.125 309.685 3.19975 0.0743445 -0.177912 0.0
8 17 233.973 309.754 3.19998 -0.478206 0.536824 0.0
8 18 234.722 309.639 3.19996 -0.0367474 0.128701 0.0
8 19 235.544 309.646 3.19995 -0.444027 -0.07745 0.0
8 20 236.266 309.197 3.19997 0.688241 -0.361298 0.0
8 21 237.083 309.251 3.19994 0.711631 0.256387 0.0
8 22 237.85 308.942 3.19997 -0.243386 0.430775 0.0
8 23 238.663 308.99 3.19988 0.247339 -0.168563 0.0
8 24 239.424 308.679 3.2 0.147297 -0.216895 0.0
8 25 240.183 308.497 3.19991 0.720627 -1.22745 0.0
8 26 240.827 307.956 3.19997 0.880004 -1.55295 0.0
8 27 241.589 307.714 3.19971 0.763355 0.160286 0.0
8 28 242.341 307.377 3.19992 0.958773 0.308744 0.0
8 29 242.939 306.878 3.19995 0.505815 -0.451397 0.0
8 30 243.634 306.454 3.19997 -0.465783 -0.0384355 0.0
8 31 244.171 305.836 3.19997 -0.169585 1.13181 0.0
8 32 244.751 305.325 3.19976 0.213961 -0.067977 0.0
8 33 245.673 305.251 3.19997 0.231335 0.237129 0.0
8 34 246.194 304.641 3.19943 0.581421 -0.373341 0.0
8 35 246.942 304.278 3.19993 0.220877 -0.134515 0.0
8 36 247.543 303.736 3.19991 -0.492372 0.0320023 0.0
8 37 248.1 303.189 3.19998 -0.759423 -0.861447 0.0
8 38 248.49 302.464 3.19995 1.58743 0.855054 0.0
8 39 249.016 301.883 3.19993 -0.42885 1.01612 0.0
8 40 249.006 300.961 3.19996 -0.704995 0.266482 0.0
8 41 249.753 300.457 3.19974 -0.502636 -0.398729 0.0
8 42 250.04 299.719 3.19997 0.424906 0.502754 0.0
8 43 250.289 298.954 3.19969 0.0976541 -0.734097 0.0
8 44 250.599 298.203 3.19993 1.387 0.641095 0.0
9 1 150.064 120.252 3.19892 -0.480826 0.356441 0.0
9 2 149.368 119.726 3.19942 -0.580097 -0.544651 0.0
9 3 148.557 119.67 3.19971 -1.2778 -1.01873 0.0
9 4 147.758 119.492 3.19994 0.294664 0.689456 0.0
9 5 146.944 119.597 3.2 -0.161963 -0.695584 0.0
9 6 146.179 119.624 3.19993 -0.00898383 0.215967 0.0
9 7 145.35 119.642 3.2 0.574062 0.562284 0.0
9 8 144.589 119.921 3.19968 0.98716 -1.43307 0.0
9 9 143.797 120.075 3.1996 -0.30568 0.311689 0.0
9 10 143.099 120.483 3.19909 -0.545308 1.42645 0.0
9 11 142.337 120.704 3.19907 -0.831476 -0.876065 0.0
9 12 141.534 120.85 3.19883 -0.311392 -0.461075 0.0
9 13 140.855 121.328 3.1992 1.8696 0.602531 0.0
9 14 140.192 121.768 3.19921 0.129061 -0.223038 0.0
9 15 139.796 122.523 3.19938 -0.373947 -0.031426 0.0
9 16 139.088 122.923 3.19967 0.340131 -0.0827536 0.0
9 17 138.526 123.496 3.19955 -0.744665 -0.142079 0.0
9 18 138.06 124.153 3.19995 -0.620512 0.218952 0.0
9 19 137.54 124.742 3.19972 -0.0935498 0.308573 0.0
9 20 137.002 125.371 3.19997 0.209633 -0.147615 0.0
9 21 136.756 126.14 3.19978 -0.284375 0.742846 0.0
9 22 136.261 126.756 3.19998 -0.855827 0.289404 0.0
9 23 135.786 127.426 3.19983 0.391151 0.582972 0.0
9 24 135.024 127.775 3.2 -0.140164 -0.126293 0.0
9 25 134.524 128.43 3.1999 0.525371 0.21947 0.0
9 26 133.796 128.794 3.19997 -0.548011 0.395072 0.0
9 27 133.19 129.323 3.19979 -0.407801 -0.98267 0.0
9 28 132.692 129.941 3.19995 0.207288 0.308203 0.0
9 29 132.204 130.576 3.1998 -0.963516 -1.28569 0.0
9 30 131.818 131.263 3.19997 0.0580873 0.639843 0.0
9 31 131.405 131.964 3.19991 0.0349641 -0.329618 0.0
9 32 131.134 132.707 3.2 -0.541588 -0.0383631 0.0
9 33 130.696 133.406 3.19994 -0.391015 -0.163253 0.0
9 34 130.311 134.078 3.19995 0.586805 -0.113097 0.0
9 35 129.885 134.769 3.19982 0.435228 -0.171503 0.0
9 36 129.562 135.489 3.19984 -0.0328955 -0.334987 0.0
9 37 129.367 136.27 3.19965 0.95062 1.0341 0.0
9 38 129.035 137.005 3.19974 0.392681 0.227299 0.0
9 39 129.008 137.837 3.19973 -0.729448 0.667305 0.0
9 40 128.587 138.552 3.19998 -0.680945 0.142619 0.0
9 41 128.227 139.222 3.19997 -0.0976722 -0.118518 0.0
9 42 127.681 139.865 3.19997 -0.375973 0.740512 0.0
9 43 127.754 140.744 3.19997 -0.493814 0.1538 0.0
9 44 127.332 141.429 3.19998 0.0669874 -1.25533 0.0
10 1 116.921 280.565 4.87121e-05 -0.472682 -0.861093 0.0
10 2 117.902 280.481 5.34822e-05 -0.131505 -1.00997 0.0
10 3 118.391 281.145 3.07532e-05 -0.876976 0.771371 0.0
10 4 119.119 281.506 0.000122907 -0.419155 0.229208 0.0
10 5 119.735 282.023 1.31243e-05 0.14735 -0.967049 0.0
10 6 120.436 282.422 4.05994e-05 0.330144 -0.271053 0.0
10 7 120.969 283.032 4.45345e-05 -0.00481572 0.101352 0.0
10 8 121.738 283.369 0.000278987 -0.41038 0.0132723 0.0
10 9 122.187 284.078 0.000140452 0.208044 -0.308518 0.0
10 10 122.782 284.605 3.90743e-05 -0.786597 0.607848 0.0
10 11 123.41 285.109 1.68803e-05 0.448826 0.03285 0.0
10 12 123.857 285.788 0.000159113 -0.807034 0.157371 0.0
10 13 124.464 286.333 1.93557e-05 0.0747835 0.563023 0.0
10 14 125.035 286.838 3.22249e-05 1.41228 0.145022 0.0
10 15 125.819 287.18 2.14898e-05 -0.1267 0.923877 0.0
10 16 126.414 287.682 3.46636e-05 -0.304327 0.426722 0.0
10 17 126.862 288.383 0.000182021 -0.500058 0.480862 0.0
10 18 127.289 289.027 0.000305026 -0.304276 0.546926 0.0
10 19 127.631 289.776 0.000310134 1.15938 -0.477369 0.0
10 20 128.149 290.369 1.20292e-05 0.719916 -0.0558555 0.0
10 21 128.53 291.081 0.000142447 0.487562 0.683839 0.0
10 22 129.121 291.647 0.000476509 0.773118 0.32356 0.0
10 23 129.576 292.283 0.000932743 -0.553075 0.368664 0.0
10 24 130.301 292.75 0.000602265 0.65269 0.0602249 0.0
10 25 130.546 293.552 0.000467844 0.494547 0.12905 0.0
10 26 131.055 294.167 6.22869e-05 1.34538 -0.106446 0.0
10 27 131.681 294.711 6.5709e-05 -0.916453 -0.983944 0.0
10 28 132.354 295.133 0.000370391 -0.797584 -0.00646605 0.0
10 29 133.108 295.398 3.34732e-05 1.04609 -0.763659 0.0
10 30 133.866 295.643 0.000103101 0.334205 0.00442814 0.0
10 31 134.465 296.224 7.00088e-05 -0.164989 -0.189976 0.0
10 32 134.966 296.804 0.000271273 -0.0179807 0.426765 0.0
10 33 135.689 297.226 0.000232589 -0.438785 0.256101 0.0
10 34 136.068 297.956 0.000595588 0.211825 -0.326072 0.0
10 35 136.792 298.382 0.000427282 0.0316152 -0.860316 0.0
10 36 137.152 299.13 0.000295746 -0.03492 0.0211252 0.0
10 37 137.816 299.598 0.000106279 0.338372 -0.469354 0.0
10 38 138.453 300.067 0.000129223 0.543454 -0.610154 0.0
10 39 138.669 300.97 7.22971e-05 -0.674889 -0.470214 0.0
10 40 139.419 301.34 7.45748e-05 -0.00761348 0.0214442 0.0
10 41 139.896 301.962 2.84418e-05 -0.604338 -0.0555705 0.0
10 42 140.494 302.54 3.53209e-05 0.921074 0.653613 0.0
10 43 141.153 302.955 1.4015e-05 0.122343 0.00981482 0.0
10 44 142.074 302.906 1.48104e-05 0.166104 -0.14399 0.0
11 1 254.415 97.7297 2.11279 0.186941 0.482281 0.0
11 2 253.871 97.1605 2.11378 -0.230174 0.432058 0.0
11 3 253.325 96.5541 2.11666 0.173607 0.427403 0.0
11 4 252.591 96.2021 2.11412 -0.0482223 0.247502 0.0
11 5 252.016 95.6335 2.11308 0.0797533 0.405094 0.0
11 6 251.3 95.2633 2.10303 0.234965 -0.143583 0.0
11 7 250.619 94.8512 2.10201 0.363354 -0.28536 0.0
11 8 249.782 94.7594 2.09406 0.170227 -0.0436157 0.0
11 9 249.108 94.3295 2.13651 0.244692 -0.192182 0.0
11 10 248.411 93.9435 2.20448 -0.034353 0.244573 0.0
11 11 247.771 93.474 2.3343 -0.182469 0.326611 0.0
11 12 247.218 92.9149 2.49126 0.0674567 0.0593622 0.0
11 13 246.888 92.1913 2.69797 0.293234 -0.106435 0.0
11 14 246.275 91.6837 2.88064 -0.123865 0.17513 0.0
11 15 245.919 90.9665 3.03086 -0.16116 0.17988 0.0
11 16 245.416 90.355 3.12351 -0.508128 0.416905 0.0
11 17 244.855 89.7839 3.18764 -0.0882419 0.0767312 0.0
11 18 244.35 89.1636 3.19939 -0.041292 -0.0124418 0.0
11 19 243.747 88.63 3.19994 0.0690955 -0.0965939 0.0
11 20 243.155 88.098 3.2 0.0201663 -0.100994 0.0
11 21 242.363 87.8257 3.19987 -0.00874538 0.0443714 0.0
11 22 241.836 87.194 3.19988 -0.100537 0.103532 0.0
11 23 241.15 86.7838 3.19973 -0.450141 0.592025 0.0
11 24 240.536 86.2623 3.19991 -0.221098 0.324921 0.0
11 25 239.899 85.7879 3.19972 -0.256668 0.356858 0.0
11 26 239.094 85.5642 3.1999 0.0601184 -0.11384 0.0
11 27 238.491 85.0306 3.19964 0.00128725 -0.182958 0.0
11 28 237.861 84.5412 3.19984 0.429364 -0.4697 0.0
11 29 237.542 83.743 3.19951 0.491467 -0.614673 0.0
11 30 236.848 83.3054 3.19977 -0.581723 0.472783 0.0
11 31 236.377 82.65 3.19932 0.391476 -0.610429 0.0
11 32 235.787 82.1085 3.1997 -0.345855 0.334911 0.0
11 33 235.056 81.7393 3.19935 0.00892082 -0.142224 0.0
11 34 234.316 81.4686 3.19983 -0.176507 -0.00574547 0.0
11 35 233.45 81.6699 3.19981 0.0271795 -0.273941 0.0
11 36 232.72 81.3539 3.19985 -0.202355 0.119551 0.0
11 37 231.963 81.0586 3.19989 -0.0233737 -0.000722871 0.0
11 38 231.32 80.5832 3.19955 -0.0202853 -0.219597 0.0
11 39 230.793 79.9561 3.19971 -0.519808 0.646958 0.0
11 40 230.02 79.6515 3.19951 -0.284654 0.202529 0.0
11 41 229.393 79.1725 3.19949 -0.095612 0.0103886 0.0
11 42 228.736 78.6961 3.19966 0.101383 -0.281509 0.0
11 43 228.205 78.0976 3.19981 -0.816098 0.860764 0.0
11 44 227.282 78.0271 3.19998 -0.00821733 0.0327282 0.0
12 1 227.565 186.683 3.19989 -0.969182 -1.55892 0.0
12 2 228.285 187.099 3.2 -0.626875 0.820681 0.0
12 3 229.151 186.817 3.19986 0.0858189 -0.0704769 0.0
12 4 229.88 187.22 3.19982 -0.444041 -0.0337127 0.0
12 5 230.693 187.215 3.19997 -0.117068 -1.22918 0.0
12 6 231.483 187.277 3.19947 0.325969 0.169482 0.0
12 7 232.289 187.298 3.19994 -0.453409 -0.917893 0.0
12 8 233.079 187.178 3.19979 -0.911163 -0.921745 0.0
12 9 233.822 186.837 3.19999 -0.729962 -0.394144 0.0
12 10 234.623 186.775 3.19995 0.061295 -1.14992 0.0
12 11 235.326 186.315 3.19999 -0.451948 0.583883 0.0
12 12 236.141 186.252 3.19998 0.236012 0.68073 0.0
12 13 236.94 186.128 3.19998 0.065864 -0.287105 0.0
12 14 237.738 186.058 3.19998 0.174002 -0.306587 0.0
12 15 238.539 186.325 3.19998 0.0581632 0.5853 0.0
12 16 239.329 186.233 3.19998 0.515488 -1.33979 0.0
12 17 240.137 186.425 3.19997 -0.503812 -0.468389 0.0
12 18 240.928 186.484 3.2 0.471919 0.824323 0.0
12 19 241.621 187.043 3.2 -0.194461 0.336907 0.0
12 20 242.456 186.972 3.19997 0.84072 0.167065 0.0
12 21 243.224 187.191 3.1998 -0.582341 -0.474102 0.0
12 22 244.034 187.28 3.1996 -0.10655 -0.145572 0.0
12 23 244.779 187.654 3.19996 0.20839 1.04733 0.0
12 24 245.588 187.641 3.19994 -0.07654 0.603054 0.0
12 25 246.337 188.038 3.19964 -0.176477 -0.15198 0.0
12 26 247.149 187.974 3.19966 -0.165656 0.0186973 0.0
12 27 247.936 188.121 3.19996 -0.249203 -0.384937 0.0
12 28 248.755 188.246 3.19994 -0.534056 -0.029577 0.0
12 29 249.521 187.82 3.1999 -1.65498 -0.0407195 0.0
12 30 250.329 188.016 3.19997 -0.182924 -1.17924 0.0
12 31 251.107 187.912 3.19986 0.725793 -0.958138 0.0
12 32 251.916 187.966 3.19994 0.85411 -0.0135943 0.0
12 33 252.625 187.451 3.19979 0.966705 0.0789646 0.0
12 34 253.457 187.5 3.1997 0.154622 -0.15458 0.0
12 35 254.205 187.369 3.19988 -0.187997 0.619955 0.0
12 36 254.97 186.99 3.1998 0.131669 -0.762749 0.0
12 37 255.715 186.782 3.1999 0.0821494 0.4334 0.0
12 38 256.521 186.666 3.19978 0.0818998 -0.0930349 0.0
12 39 257.242 186.271 3.1999 -0.159414 0.339977 0.0
12 40 258.021 186.162 3.19991 0.470251 -1.4348 0.0
12 41 258.847 186.205 3.19997 0.00867931 0.293055 0.0
12 42 259.633 186.024 3.19994 -0.698342 -1.16754 0.0
12 43 260.391 185.775 3.19993 -0.101926 -0.270548 0.0
12 44 261.137 185.516 3.19983 0.307269 -0.0892404 0.0
13 1 241.75 168.784 8.36372e-05 0.25826 0.220757 0.0
13 2 240.992 168.464 0.000164029 -0.398774 0.208075 0.0
13 3 240.185 168.409 5.5001e-05 0.471085 -0.184081 0.0
13 4 239.407 168.16 7.12877e-05 0.269387 -0.223058 0.0
13 5 238.705 167.786 3.17823e-05 0.446168 0.636425 0.0
13 6 237.909 167.614 7.08943e-05 0.242671 -0.542419 0.0
13 7 237.087 167.797 9.91763e-05 0.354003 0.557454 0.0
13 8 236.341 168.007 0.000161852 -0.130471 -0.00700789 0.0
13 9 235.602 168.324 0.000100283 0.135924 -0.22665 0.0
13 10 234.75 168.105 0.000272978 0.253604 -1.12606 0.0
13 11 234.019 168.463 1.49834e-05 -0.272648 0.213803 0.0
13 12 233.25 168.663 0.000391799 0.589096 0.312435 0.0
13 13 232.505 168.92 0.000179949 -0.865616 -0.13077 0.0
13 14 231.735 169.124 0.000728095 -0.396819 0.193517 0.0
13 15 230.983 169.412 0.000144987 -0.521659 0.302177 0.0
13 16 230.443 170.069 0.000211833 0.247468 0.0617819 0.0
13 17 229.754 170.42 1.83155e-06 -0.571958 0.178003 0.0
13 18 229.037 170.816 5.46193e-05 -0.352814 -0.225158 0.0
13 19 228.202 170.775 4.55934e-05 -0.514738 -0.428887 0.0
13 20 227.447 171.068 5.6926e-05 0.18276 -0.027237 0.0
13 21 226.757 171.462 0.000313639 -0.765251 0.526706 0.0
13 22 226.141 171.995 0.000140728 1.09119 0.538212 0.0
13 23 225.45 172.357 0.000283522 -1.22026 0.317491 0.0
13 24 224.631 172.539 1.22672e-05 -0.419939 -0.140141 0.0
13 25 223.874 172.749 9.69152e-05 -0.0388397 0.465849 0.0
13 26 223.086 172.895 0.000543692 0.0367689 0.23199 0.0
13 27 222.31 172.983 0.000236703 -0.907795 -0.0724674 0.0
13 28 221.479 173.029 0.000488736 0.832225 0.17588 0.0
13 29 220.682 172.889 3.9406e-05 -0.414664 0.390253 0.0
13 30 219.886 172.854 0.000229069 -0.142584 0.0737684 0.0
13 31 219.08 172.786 7.15355e-07 -1.1716 0.147231 0.0
13 32 218.37 172.321 0.000114496 0.264702 0.490661 0.0
13 33 217.628 172.047 8.60703e-05 0.0751235 -0.0227445 0.0
13 34 217.008 171.503 0.000509536 0.135575 0.0966417 0.0
13 35 216.17 171.424 0.00029484 0.120423 -0.632172 0.0
13 36 215.602 170.797 0.000198351 -0.879493 -0.00785089 0.0
13 37 214.82 170.56 4.98375e-05 -0.387066 0.922944 0.0
13 38 214.116 170.171 2.11171e-05 -0.0297808 -0.188762 0.0