# 12000000
#nworms:400
#np:160
1 1 288.838 265.699 0.0155503 0.151868 -0.0496976 0.0
1 2 288.069 265.942 0.0 0.250501 0.0222207 0.0
1 3 287.34 266.263 0.0236816 0.227373 0.242636 0.0
1 4 286.584 266.539 0.000877512 0.0414977 -0.232839 0.0
1 5 285.778 266.613 0.0427358 0.0424417 -0.354081 0.0
1 6 284.998 266.773 0.0147658 -0.0165365 0.0311311 0.0
1 7 284.246 267.07 0.0665079 0.00682009 -0.226145 0.0
1 8 283.496 267.333 0.0340955 -0.124266 -0.18732 0.0
1 9 282.769 267.683 0.0885728 0.00527276 -0.0536203 0.0
1 10 282.049 268.02 0.0513792 -0.145737 -0.201613 0.0
1 11 281.457 268.603 0.10699 0.155721 0.184314 0.0
1 12 280.721 268.917 0.0714102 -0.0716328 -0.0822308 0.0
1 13 279.962 269.182 0.122388 0.0288403 0.00240649 0.0
1 14 279.307 269.667 0.0833696 -0.06586 -0.0728735 0.0
1 15 278.541 269.92 0.1336 -0.0881176 -0.216126 0.0
1 16 277.812 270.239 0.0882202 -0.121184 -0.219275 0.0
1 17 277.113 270.645 0.13376 0.226173 0.379915 0.0
1 18 276.346 270.88 0.0864967 0.0973576 0.316932 0.0
1 19 275.599 271.165 0.134621 0.0439646 -0.0575354 0.0
1 20 274.828 271.384 0.0887851 0.0536377 0.157311 0.0
1 21 274.104 271.738 0.131579 -0.0880167 -0.29048 0.0
1 22 273.324 271.933 0.0852176 0.0877453 0.235439 0.0
1 23 272.636 272.379 0.130801 -0.0645736 -0.274254 0.0
1 24 271.872 272.611 0.0834162 0.0495956 0.110997 0.0
1 25 271.099 272.83 0.129546 0.0180575 -0.191665 0.0
1 26 270.287 272.852 0.0801725 0.0448891 0.127947 0.0
1 27 269.514 273.06 0.128517 0.0455378 -0.0967468 0.0
1 28 268.748 273.293 0.080577 0.0162576 -0.0519395 0.0
1 29 267.988 273.547 0.127675 0.000644206 -0.157173 0.0
1 30 267.163 273.5 0.0831614 -0.0248114 -0.276472 0.0
1 31 266.389 273.691 0.132322 -0.0708501 -0.309821 0.0
1 32 265.625 273.938 0.0876964 0.0686683 0.194108 0.0
1 33 264.878 274.221 0.131206 -0.129925 -0.425558 0.0
1 34 264.127 274.502 0.0819264 0.0362772 0.150247 0.0
1 35 263.52 275.071 0.121591 -0.0245708 -0.183576 0.0
1 36 262.757 275.332 0.0721592 -0.130908 -0.147091 0.0
1 37 262.039 275.675 0.114755 -0.0425309 -0.204171 0.0
1 38 261.302 275.999 0.0620039 0.0187205 0.218643 0.0
1 39 260.527 276.197 0.105492 0.0348396 0.162136 0.0
1 40 259.738 276.345 0.0553435 -0.104642 -0.179667 0.0
1 41 259.006 276.694 0.101222 -0.0920234 -0.0784198 0.0
1 42 258.215 276.834 0.0576795 -0.0303581 0.00398673 0.0
1 43 257.449 277.068 0.108338 -0.128177 -0.167635 0.0
1 44 256.656 277.19 0.0695654 -0.00988106 0.101216 0.0
1 45 255.857 277.243 0.119016 -0.0904083 -0.0476616 0.0
1 46 255.084 277.477 0.0758866 0.0141549 0.249925 0.0
1 47 254.269 277.434 0.119969 -0.0378248 -0.0790744 0.0
1 48 253.492 277.614 0.0723224 0.0361688 0.290164 0.0
1 49 252.69 277.679 0.113194 0.0491444 -0.0275408 0.0
1 50 251.92 277.904 0.0672327 -0.11275 -0.339897 0.0
1 51 251.176 278.191 0.114328 0.0811896 -0.00310137 0.0
1 52 250.509 278.656 0.0658602 -0.0215142 -0.107399 0.0
1 53 249.748 278.906 0.116221 -0.0867812 -0.397103 0.0
1 54 249.065 279.344 0.0707983 -0.026703 -0.163141 0.0
1 55 248.273 279.516 0.121386 0.0992548 0.100755 0.0
1 56 247.554 279.873 0.0782768 -0.0236984 -0.266646 0.0
1 57 246.763 280.037 0.12832 -0.0285446 -0.097856 0.0
1 58 246.019 280.33 0.0861195 0.182754 0.350333 0.0
1 59 245.301 280.685 0.138588 0.0171088 0.03859 0.0
1 60 244.508 280.858 0.0926503 0.0306772 -0.0139861 0.0
1 61 243.819 281.281 0.142888 0.0678865 0.132662 0.0
1 62 243.092 281.612 0.0941673 -0.208454 -0.428448 0.0
1 63 242.296 281.764 0.14006 0.00702324 -0.0851142 0.0
1 64 241.579 282.14 0.0928961 -0.0912427 -0.0854582 0.0
1 65 240.765 282.218 0.141855 0.0214407 0.00598149 0.0
1 66 240.015 282.491 0.0909845 -0.0781349 -0.130123 0.0
1 67 239.237 282.683 0.142864 -0.039297 -0.0616132 0.0
1 68 238.465 282.891 0.0887924 -0.0843067 -0.198208 0.0
1 69 237.739 283.243 0.141476 -0.0074145 0.13886 0.0
1 70 236.991 283.511 0.0884394 0.144868 0.307067 0.0
1 71 236.243 283.809 0.137377 -0.196066 -0.336908 0.0
1 72 235.552 284.215 0.0882581 -0.0806125 -0.179069 0.0
1 73 234.998 284.815 0.130524 0.0629178 0.00547491 0.0
1 74 234.342 285.262 0.0946617 -0.0125059 -0.121197 0.0
1 75 233.604 285.601 0.141478 0.127973 0.0990103 0.0
1 76 233.004 286.136 0.094605 -0.107903 -0.254845 0.0
1 77 232.352 286.597 0.14133 -0.152834 -0.275329 0.0
1 78 231.792 287.177 0.0917989 -0.0164009 -0.103183 0.0
1 79 231.133 287.632 0.139028 0.13299 0.0595288 0.0
1 80 230.53 288.158 0.0923168 0.224469 0.222402 0.0
1 81 229.829 288.559 0.142939 0.0389954 -0.0700288 0.0
1 82 229.222 289.077 0.0966747 0.0492545 0.00527125 0.0
1 83 228.631 289.624 0.142441 0.343594 0.256871 0.0
1 84 228.152 290.268 0.0962081 -0.0387751 -0.0422893 0.0
1 85 227.719 290.942 0.141816 0.0866435 0.0288899 0.0
1 86 227.155 291.519 0.0916791 -0.22851 -0.166088 0.0
1 87 226.717 292.191 0.136759 0.0639005 -0.00830617 0.0
1 88 226.258 292.845 0.0871375 0.156653 0.10071 0.0
1 89 225.765 293.477 0.139032 -0.0412502 -0.094194 0.0
1 90 225.209 294.054 0.0890423 -0.0108598 -0.0246764 0.0
1 91 224.601 294.576 0.139891 -0.317262 -0.365335 0.0
1 92 224.136 295.244 0.0892565 0.0951703 0.0884115 0.0
1 93 223.509 295.744 0.135223 0.00485592 -0.0623334 0.0
1 94 222.863 296.222 0.0835634 0.135521 0.11613 0.0
1 95 222.14 296.57 0.132208 0.0395969 -0.0275727 0.0
1 96 221.41 296.904 0.080572 0.0819538 0.0290535 0.0
1 97 220.625 297.078 0.130614 0.0245658 -0.165141 0.0
1 98 219.879 297.386 0.0765259 0.122156 0.195055 0.0
1 99 219.056 297.384 0.128231 0.135491 0.230139 0.0
1 100 218.296 297.642 0.0761635 0.0665919 0.0495661 0.0
1 101 217.508 297.788 0.132231 0.123304 0.126772 0.0
1 102 216.739 298.019 0.0791829 0.103593 0.166482 0.0
1 103 215.935 298.076 0.132654 0.0733635 -0.161712 0.0
1 104 215.145 298.193 0.0832606 0.110836 0.06749 0.0
1 105 214.366 298.382 0.135963 0.0905932 -0.115679 0.0
1 106 213.578 298.527 0.084349 0.0657239 -0.270966 0.0
1 107 212.785 298.616 0.134188 0.144448 0.421461 0.0
1 108 211.989 298.731 0.0842319 0.0780422 0.0161152 0.0
1 109 211.244 299.038 0.137148 0.06017 0.1231 0.0
1 110 210.451 299.177 0.0894498 -0.0223319 -0.0623983 0.0
1 111 209.694 299.424 0.138041 0.00335329 -0.0842336 0.0
1 112 208.943 299.713 0.090804 -0.0613565 -0.00892761 0.0
1 113 208.167 299.902 0.136407 -0.0103479 -0.119103 0.0
1 114 207.372 300.008 0.0974786 -0.0982817 -0.13489 0.0
1 115 206.601 300.23 0.135352 -0.0283569 -0.223185 0.0
1 116 205.8 300.296 0.0993974 -0.0925186 -0.0383571 0.0
1 117 205.011 300.408 0.130405 -5.31038e-05 0.251871 0.0
1 118 204.201 300.296 0.102413 -0.0873652 0.0334716 0.0
1 119 203.416 300.506 0.126053 -0.0281066 -0.130423 0.0
1 120 202.617 300.534 0.108236 -0.0115126 0.304204 0.0
1 121 201.818 300.596 0.12117 -0.0411571 -0.186465 0.0
1 122 201.068 300.947 0.117264 0.0339137 0.11307 0.0
1 123 200.239 300.85 0.116847 -0.0585791 -0.093438 0.0
1 124 199.474 301.078 0.125492 0.0988743 0.196447 0.0
1 125 198.663 301.13 0.112367 -0.0553083 0.101241 0.0
1 126 197.95 301.566 0.129812 -0.0742085 -0.339682 0.0
1 127 197.163 301.689 0.103237 -0.0179366 0.132176 0.0
1 128 196.381 301.877 0.13205 -0.0292451 -0.11742 0.0
1 129 195.583 301.944 0.0994669 0.0121298 -0.0335182 0.0
1 130 194.787 302.009 0.133756 0.0060113 -0.00859394 0.0
1 131 193.988 302.057 0.0955361 0.0802217 0.0787863 0.0
1 132 193.19 302.073 0.127925 0.0479703 0.184303 0.0
1 133 192.398 302.226 0.0898937 0.0890086 0.101515 0.0
1 134 191.597 302.211 0.122682 0.0575545 0.122299 0.0
1 135 190.799 302.185 0.0899018 0.0499345 0.453229 0.0
1 136 190.018 301.963 0.133298 0.0531809 0.00509263 0.0
1 137 189.203 302.086 0.0952719 0.0353823 -0.0772692 0.0
1 138 188.419 301.924 0.140728 0.0155242 0.104712 0.0
1 139 187.634 301.766 0.0961843 0.0201665 -0.126003 0.0
1 140 186.897 301.439 0.138086 -0.00189444 -0.00182717 0.0
1 141 186.14 301.194 0.0965369 -0.0624637 0.0636693 0.0
1 142 185.376 300.949 0.134007 -0.110528 0.19627 0.0
1 143 184.626 300.685 0.0929515 -0.0910482 0.0683902 0.0
1 144 183.894 300.346 0.14129 -0.0103967 -0.0415872 0.0
1 145 183.113 300.172 0.0888706 -0.0820454 0.0796659 0.0
1 146 182.32 300.041 0.138029 -0.0468142 0.329152 0.0
1 147 181.518 300.048 0.0807287 -0.00661738 0.207928 0.0
1 148 180.725 300.177 0.128683 -0.0338492 0.106648 0.0
1 149 179.923 300.176 0.0712305 0.0594671 0.203874 0.0
1 150 179.129 300.266 0.113943 -0.0273088 -0.139003 0.0
1 151 178.333 300.369 0.0560888 0.076668 0.128274 0.0
1 152 177.573 300.637 0.0939944 0.0379171 0.0703046 0.0
1 153 176.846 300.967 0.0415059 0.0192121 0.0480325 0.0
1 154 176.08 301.211 0.075772 0.0110326 -0.00163166 0.0
1 155 175.381 301.615 0.0214743 -0.0923346 -0.199507 0.0
1 156 174.588 301.786 0.0533075 0.119444 0.205866 0.0
1 157 173.857 302.112 0.00574954 -0.108478 -0.128651 0.0
1 158 173.14 302.468 0.0310438 0.0852965 0.0623529 0.0
1 159 172.468 302.909 6.06942e-05 -0.0085671 0.167787 0.0
1 160 171.77 303.294 0.0145014 0.272113 0.305529 0.0
2 1 224.506 200.24 1.92148 -0.18544 -0.026245 0.0
2 2 223.872 199.742 1.92304 -0.104233 -0.0427673 0.0
2 3 223.314 199.174 1.90941 -0.169424 -0.0300735 0.0
2 4 222.743 198.609 1.92104 -0.357947 0.197547 0.0
2 5 222.16 198.068 1.89566 0.0877732 -0.279768 0.0
2 6 221.639 197.451 1.91929 -0.0621455 -0.111337 0.0
2 7 220.993 196.976 1.88217 -0.208579 0.0418693 0.0
2 8 220.344 196.509 1.9172 -0.326288 0.223144 0.0
2 9 219.653 196.106 1.87089 -0.161376 -0.0280766 0.0
2 10 219.044 195.577 1.9151 -0.158417 -0.041738 0.0
2 11 218.342 195.194 1.86686 -0.296657 0.158178 0.0
2 12 217.642 194.806 1.91558 -0.320177 0.20375 0.0
2 13 217.024 194.293 1.86818 -0.145195 -0.0642262 0.0
2 14 216.34 193.878 1.91811 -0.254187 0.0797294 0.0
2 15 215.708 193.387 1.8688 -0.122704 -0.0789076 0.0
2 16 215.107 192.856 1.91877 -0.372655 0.201607 0.0
2 17 214.609 192.227 1.86748 0.00834122 -0.18835 0.0
2 18 214.068 191.639 1.91195 -0.350915 0.178386 0.0
2 19 213.524 191.055 1.86628 -0.122503 -0.0414517 0.0
2 20 212.902 190.542 1.91505 -0.2387 0.0737028 0.0
2 21 212.467 189.858 1.86742 -0.333095 0.164719 0.0
2 22 211.84 189.344 1.91292 -0.109144 -0.0298325 0.0
2 23 211.455 188.623 1.86705 -0.169986 0.0481701 0.0
2 24 210.852 188.085 1.90955 -0.0594986 -0.0538091 0.0
2 25 210.369 187.451 1.87238 0.0781466 -0.167826 0.0
2 26 209.891 186.804 1.90675 -0.102896 -0.0150657 0.0
2 27 209.285 186.272 1.87862 -0.109713 0.0206142 0.0
2 28 208.585 185.875 1.90453 -0.012965 -0.157804 0.0
2 29 207.9 185.47 1.88962 -0.164729 0.115562 0.0
2 30 207.125 185.221 1.90445 -0.125173 0.0153819 0.0
2 31 206.491 184.716 1.90248 -0.14329 0.074118 0.0
2 32 205.712 184.468 1.90014 -0.146451 -0.0217575 0.0
2 33 205.067 183.988 1.90964 0.137248 -0.455713 0.0
2 34 204.43 183.505 1.88825 -0.233778 0.033799 0.0
2 35 203.828 182.975 1.91253 -0.213406 -0.0257774 0.0
2 36 203.291 182.382 1.87889 -0.387927 0.130356 0.0
2 37 202.718 181.82 1.91246 -0.170025 -0.076886 0.0
2 38 202.311 181.118 1.87552 -0.131074 -0.102706 0.0
2 39 201.767 180.531 1.91283 -0.292178 0.00756856 0.0
2 40 201.274 179.903 1.86952 -0.250183 -0.0153327 0.0
2 41 200.737 179.304 1.91467 -0.180068 -0.0902653 0.0
2 42 200.346 178.601 1.87043 -0.135498 -0.0898538 0.0
2 43 199.937 177.916 1.9167 -0.203331 -0.0748935 0.0
2 44 199.729 177.126 1.86954 -0.530122 0.0942979 0.0
2 45 199.315 176.442 1.91334 0.184834 -0.234311 0.0
2 46 198.964 175.72 1.86888 -0.0865791 -0.119767 0.0
2 47 198.713 174.96 1.91679 -0.118205 -0.100979 0.0
2 48 198.514 174.183 1.8703 -0.194983 -0.0667377 0.0
2 49 198.181 173.451 1.9163 -0.0897977 -0.0992419 0.0
2 50 197.799 172.753 1.86748 -0.065474 -0.116475 0.0
2 51 197.367 172.071 1.91221 -0.263667 0.0138645 0.0
2 52 196.773 171.525 1.86663 -0.455629 0.228815 0.0
2 53 196.161 171.015 1.90988 -0.375534 0.164433 0.0
2 54 195.524 170.528 1.86773 -0.159984 -0.106899 0.0
2 55 194.854 170.091 1.90851 -0.0468865 -0.282712 0.0
2 56 194.175 169.669 1.86694 -0.0569414 -0.250126 0.0
2 57 193.433 169.353 1.91319 -0.210036 0.0398363 0.0
2 58 192.745 168.949 1.86951 -0.307665 0.253768 0.0
2 59 192.131 168.419 1.91616 0.006945 -0.264091 0.0
2 60 191.43 168.034 1.87053 -0.153304 0.0123256 0.0
2 61 190.682 167.732 1.91765 -0.245588 0.296815 0.0
2 62 189.892 167.581 1.87196 -0.137129 -0.0816272 0.0
2 63 189.105 167.456 1.91897 -0.209558 0.187855 0.0
2 64 188.314 167.313 1.87356 -0.146333 -0.173926 0.0
2 65 187.517 167.246 1.92031 -0.199439 0.146894 0.0
2 66 186.711 167.304 1.87675 -0.162993 -0.00878819 0.0
2 67 185.917 167.211 1.92355 -0.204291 0.212214 0.0
2 68 185.127 167.07 1.87738 -0.18873 0.142437 0.0
2 69 184.329 167.017 1.92592 -0.186767 -0.0253285 0.0
2 70 183.539 166.861 1.87685 -0.210823 0.326273 0.0
2 71 182.735 166.896 1.92359 -0.169202 -0.365832 0.0
2 72 181.938 166.833 1.87621 -0.193742 -0.227802 0.0
2 73 181.137 166.814 1.92136 -0.18506 -0.0636842 0.0
2 74 180.344 166.989 1.87438 -0.175448 -0.110574 0.0
2 75 179.544 166.973 1.92443 -0.174531 0.0202924 0.0
2 76 178.743 166.982 1.87875 -0.164062 -0.00316653 0.0
2 77 177.947 167.07 1.93042 -0.166141 0.118619 0.0
2 78 177.145 167.097 1.88144 -0.153545 -0.144455 0.0
2 79 176.348 166.991 1.9301 -0.159877 0.0437947 0.0
2 80 175.572 166.795 1.87861 -0.128564 -0.154962 0.0
2 81 174.787 166.64 1.93139 -0.136383 -0.0328245 0.0
2 82 174.026 166.38 1.87494 -0.143751 -0.0162909 0.0
2 83 173.235 166.252 1.92798 -0.0960753 -0.182341 0.0
2 84 172.464 166.027 1.87448 -0.166059 0.131657 0.0
2 85 171.666 165.946 1.92706 -0.135332 0.0597099 0.0
2 86 170.874 165.836 1.87463 -0.15421 0.1099 0.0
2 87 170.083 165.711 1.9278 -0.13441 0.0815009 0.0
2 88 169.286 165.639 1.87327 -0.159371 0.0843049 0.0
2 89 168.485 165.629 1.92403 -0.139929 0.316189 0.0
2 90 167.69 165.761 1.87365 -0.159723 0.22036 0.0
2 91 166.889 165.77 1.92307 -0.16523 -0.112016 0.0
2 92 166.093 165.671 1.87627 -0.176808 0.233821 0.0
2 93 165.308 165.508 1.92169 -0.156727 -0.165558 0.0
2 94 164.505 165.497 1.87524 -0.166459 0.0176871 0.0
2 95 163.711 165.408 1.92017 -0.181005 0.192124 0.0
2 96 162.914 165.337 1.87217 -0.199702 0.23465 0.0
2 97 162.117 165.261 1.918 -0.157671 -0.0823833 0.0
2 98 161.322 165.183 1.87164 -0.189067 0.0439599 0.0
2 99 160.548 164.939 1.92049 -0.173773 0.0287671 0.0
2 100 159.752 164.878 1.87568 -0.168977 -0.131905 0.0
2 101 158.949 164.822 1.92248 -0.177779 0.0636742 0.0
2 102 158.154 164.954 1.87837 -0.174879 -0.0647601 0.0
2 103 157.365 165.072 1.92586 -0.17723 0.0635189 0.0
2 104 156.555 164.991 1.88024 -0.169864 0.222698 0.0
2 105 155.764 165.112 1.92672 -0.181155 0.0116549 0.0
2 106 154.962 165.148 1.88301 -0.192274 0.065667 0.0
2 107 154.169 165.242 1.92884 -0.187123 -0.120402 0.0
2 108 153.375 165.368 1.88915 -0.268952 -0.382689 0.0
2 109 152.613 165.625 1.92728 -0.166084 -0.0433949 0.0
2 110 151.886 165.958 1.88493 -0.0445341 0.246213 0.0
2 111 151.113 166.184 1.90971 -0.00870243 0.336265 0.0
2 112 150.401 166.552 1.85448 -0.241996 -0.223198 0.0
2 113 149.648 166.831 1.85908 -0.203567 -0.121471 0.0
2 114 148.97 167.261 1.78898 -0.192469 -0.109253 0.0
2 115 148.26 167.627 1.77426 -0.130606 -0.00176941 0.0
2 116 147.515 167.917 1.68887 -0.0780174 0.131188 0.0
2 117 146.788 168.247 1.6613 -0.010432 0.258347 0.0
2 118 146.146 168.737 1.57796 -0.201697 -0.0895575 0.0
2 119 145.443 169.11 1.54749 -0.135076 0.0246175 0.0
2 120 144.658 169.321 1.50365 -0.144662 0.0433524 0.0
2 121 143.952 169.694 1.50023 0.0329516 0.377505 0.0
2 122 143.264 170.105 1.51023 -0.0273065 0.227648 0.0
2 123 142.683 170.668 1.55077 -0.123517 0.125061 0.0
2 124 142.009 171.087 1.63397 -0.1076 0.0996873 0.0
2 125 141.35 171.533 1.73685 -0.131737 0.0828401 0.0
2 126 140.737 172.025 1.87604 -0.111196 0.0537271 0.0
2 127 140.201 172.605 2.04551 0.0149555 0.233679 0.0
2 128 139.508 172.982 2.23325 -0.0870486 0.0391926 0.0
2 129 138.89 173.435 2.4482 -0.224143 -0.134485 0.0
2 130 138.446 174.11 2.63102 -0.301192 -0.2042 0.0
2 131 137.771 174.524 2.8053 -0.117255 -0.0186568 0.0
2 132 137.221 175.09 2.93138 -0.149034 -0.0507621 0.0
2 133 136.644 175.639 3.03254 -0.196934 -0.0837664 0.0
2 134 136.107 176.227 3.09296 0.0933403 0.176236 0.0
2 135 135.719 176.942 3.13842 0.0496032 0.107598 0.0
2 136 135.172 177.525 3.13342 -0.205565 -0.0401263 0.0
2 137 134.629 178.116 3.17098 0.20659 0.266163 0.0
2 138 134.178 178.779 3.13003 -0.0235785 0.116058 0.0
2 139 133.746 179.452 3.17064 -0.0132958 0.134387 0.0
2 140 133.418 180.184 3.11714 -0.0490234 0.114978 0.0
2 141 132.827 180.765 3.16301 -0.125706 0.0730508 0.0
2 142 132.569 181.537 3.10702 -0.000667093 0.138998 0.0
2 143 132.084 182.185 3.15495 -0.37932 -0.0457614 0.0
2 144 131.795 182.935 3.10078 0.0885244 0.173034 0.0
2 145 131.545 183.694 3.14999 -0.109733 0.0615129 0.0
2 146 131.241 184.435 3.09698 -0.172889 0.0604585 0.0
2 147 131.105 185.233 3.14714 -0.119189 0.0569827 0.0
2 148 130.802 185.974 3.10203 0.00244416 0.0990693 0.0
2 149 130.475 186.705 3.15476 -0.0478524 0.0759759 0.0
2 150 130.087 187.404 3.11184 -0.139151 0.0127044 0.0
2 151 129.714 188.114 3.16138 0.0271743 0.102385 0.0
2 152 129.152 188.7 3.12469 -0.165829 -0.0244327 0.0
2 153 128.906 189.495 3.17 -0.229151 -0.0625466 0.0
2 154 128.258 190.025 3.13882 0.0802324 0.125004 0.0
2 155 127.888 190.731 3.18385 -0.0708024 0.0533996 0.0
2 156 127.507 191.437 3.15429 -0.0997501 0.0145769 0.0
2 157 127.111 192.13 3.19489 0.0730009 0.13113 0.0
2 158 126.983 192.949 3.17442 -0.18128 -0.0285392 0.0
2 159 126.571 193.638 3.2 0.0225553 0.116762 0.0
2 160 126.176 194.331 3.19334 -0.0913167 0.0134073 0.0
3 1 211.081 315.716 1.97237 -0.0166153 0.0863116 0.0
3 2 210.318 315.484 1.8932 -0.0288205 0.117584 0.0
3 3 209.542 315.303 1.83889 -0.00744799 0.0402228 0.0
3 4 208.76 315.146 1.74896 0.0200815 -0.0871828 0.0
3 5 207.986 314.955 1.71653 0.0192403 -0.0846962 0.0
3 6 207.248 314.63 1.6374 -0.116452 0.310125 0.0
3 7 206.443 314.549 1.61913 -0.00875187 0.025157 0.0
3 8 205.681 314.312 1.55217 -0.00488682 -0.260907 0.0
3 9 204.891 314.172 1.55067 -0.0419436 0.180813 0.0
3 10 204.099 314.075 1.49289 -0.0407586 -0.0514873 0.0
3 11 203.294 314.158 1.50837 -0.0278004 -0.141858 0.0
3 12 202.505 313.92 1.455 -0.0357456 -0.195052 0.0
3 13 201.703 313.999 1.48123 -0.0473441 0.127575 0.0
3 14 200.909 314.039 1.42628 -0.0414435 -0.176862 0.0
3 15 200.104 314.062 1.45661 -0.0514006 0.103781 0.0
3 16 199.312 313.964 1.39769 -0.0723652 0.161697 0.0
3 17 198.516 313.851 1.42967 -0.0414349 -0.0625836 0.0
3 18 197.76 313.58 1.37604 -0.0186366 -0.0982268 0.0
3 19 197.01 313.305 1.40949 0.0199498 -0.252636 0.0
3 20 196.235 313.101 1.35585 -0.0585557 -0.00562736 0.0
3 21 195.47 312.864 1.39362 -0.0852624 0.0732398 0.0
3 22 194.715 312.598 1.3478 -0.0693352 0.0123197 0.0
3 23 193.957 312.335 1.38772 0.0191817 -0.242167 0.0
3 24 193.172 312.17 1.34305 -0.110923 0.141098 0.0
3 25 192.377 312.067 1.38587 0.0249451 -0.300795 0.0
3 26 191.628 311.745 1.34183 -0.149115 0.324685 0.0
3 27 190.835 311.62 1.38475 -0.0790065 0.100428 0.0
3 28 190.027 311.648 1.33581 -0.133706 0.39221 0.0
3 29 189.23 311.624 1.37766 -0.0607805 -0.173009 0.0
3 30 188.428 311.559 1.3266 -0.0897802 0.0644929 0.0
3 31 187.665 311.274 1.36501 -0.0910211 0.0800795 0.0
3 32 186.864 311.209 1.309 -0.0291307 -0.0874254 0.0
3 33 186.082 311.035 1.34722 -0.0777586 0.111254 0.0
3 34 185.306 310.832 1.29088 -0.0415469 0.0150314 0.0
3 35 184.516 310.71 1.32879 -0.0580047 0.0667579 0.0
3 36 183.729 310.55 1.27423 -0.0292745 -0.016387 0.0
3 37 182.923 310.571 1.3193 -0.0425583 -0.0909281 0.0
3 38 182.129 310.583 1.26909 -0.0501806 -0.19059 0.0
3 39 181.347 310.856 1.31464 -0.0556521 -0.117984 0.0
3 40 180.548 310.825 1.26673 -0.0557497 -0.0891289 0.0
3 41 179.747 310.801 1.31551 -0.0743999 0.0176947 0.0
3 42 178.952 310.882 1.26534 -0.0607233 0.235045 0.0
3 43 178.154 310.946 1.31381 -0.0743636 0.171838 0.0
3 44 177.357 310.942 1.26642 -0.0817229 -0.303646 0.0
3 45 176.554 310.934 1.31608 -0.0720979 0.00261917 0.0
3 46 175.764 310.821 1.26861 -0.0719349 -0.239301 0.0
3 47 174.993 310.579 1.32069 -0.0725042 0.0197302 0.0
3 48 174.184 310.597 1.27574 -0.147061 0.332035 0.0
3 49 173.405 310.393 1.32586 -0.0932766 0.414837 0.0
3 50 172.611 310.317 1.28186 -0.0951389 0.069713 0.0
3 51 171.805 310.364 1.33215 -0.0446825 -0.0701211 0.0
3 52 171.016 310.216 1.29414 -0.103459 0.125939 0.0
3 53 170.238 310.052 1.34566 0.0148951 -0.193437 0.0
3 54 169.47 309.813 1.31405 -0.0863849 0.0236893 0.0
3 55 168.693 309.645 1.36477 -0.0676573 0.235855 0.0
3 56 167.874 309.703 1.3354 -0.114818 0.343985 0.0
3 57 167.099 309.525 1.38881 -0.0195564 -0.07566 0.0
3 58 166.343 309.243 1.35342 0.00125849 -0.0294657 0.0
3 59 165.515 309.323 1.4095 -0.00457627 0.00818177 0.0
3 60 164.772 308.956 1.37467 0.0559875 -0.198682 0.0
3 61 163.98 308.877 1.42677 0.032583 -0.0217804 0.0
3 62 163.179 308.82 1.39985 0.0932462 -0.214626 0.0
3 63 162.405 308.616 1.45433 0.0527775 -0.0247148 0.0
3 64 161.589 308.666 1.42789 0.184523 -0.710109 0.0
3 65 160.821 308.421 1.47754 0.0215334 0.282208 0.0
3 66 160.014 308.386 1.4374 0.103953 -0.109201 0.0
3 67 159.246 308.157 1.49138 0.0981293 -0.156099 0.0
3 68 158.476 307.942 1.44894 0.0657647 0.0317557 0.0
3 69 157.715 307.696 1.49905 -0.0222647 0.197774 0.0
3 70 157.062 307.189 1.45281 0.0722406 -0.0402626 0.0
3 71 156.267 307.017 1.49209 0.0226717 0.0562107 0.0
3 72 155.554 306.656 1.44851 0.0245159 -0.0194756 0.0
3 73 154.815 306.346 1.48718 -0.038741 0.13388 0.0
3 74 154.064 306.07 1.44656 -0.033449 0.0141078 0.0
3 75 153.335 305.741 1.48149 0.117168 -0.285961 0.0
3 76 152.619 305.387 1.43745 -0.0436901 -0.0324054 0.0
3 77 151.891 305.045 1.47117 -0.029532 -0.0186305 0.0
3 78 151.371 304.386 1.41933 -0.212363 0.159198 0.0
3 79 150.656 304.023 1.45172 0.00823874 -0.0747465 0.0
3 80 149.969 303.62 1.39776 -0.107799 0.00634646 0.0
3 81 149.333 303.121 1.42982 -0.0388124 -0.00146704 0.0
3 82 148.6 302.797 1.38066 0.08898 -0.284696 0.0
3 83 147.87 302.472 1.40858 -0.0410187 0.0390596 0.0
3 84 147.149 302.129 1.37294 -0.00760501 -0.0481795 0.0
3 85 146.396 301.85 1.38781 -0.0427906 0.0817987 0.0
3 86 145.694 301.468 1.37011 -0.107375 0.200731 0.0
3 87 145.022 301.028 1.37104 0.101666 -0.15739 0.0
3 88 144.304 300.677 1.3689 0.0777258 -0.124045 0.0
3 89 143.511 300.495 1.35363 0.0824284 -0.112812 0.0
3 90 142.812 300.102 1.36872 0.0303365 0.00330329 0.0
3 91 142.051 299.837 1.34328 -0.0272446 0.113872 0.0
3 92 141.399 299.354 1.37444 -0.0293839 0.121313 0.0
3 93 140.658 299.048 1.34236 0.0325036 -0.00408882 0.0
3 94 140.009 298.563 1.37886 -0.218967 0.47679 0.0
3 95 139.203 298.383 1.339 0.00771315 -0.00591249 0.0
3 96 138.596 297.81 1.37948 -0.0384761 0.159556 0.0
3 97 137.836 297.548 1.34129 0.138263 -0.268766 0.0
3 98 137.107 297.223 1.38488 0.0674782 -0.0971716 0.0
3 99 136.33 297.003 1.34748 -0.0205598 0.106705 0.0
3 100 135.629 296.61 1.39221 0.0178896 0.0129413 0.0
3 101 134.92 296.241 1.35091 0.185268 -0.335149 0.0
3 102 134.265 295.775 1.3961 -0.0100009 0.0477681 0.0
3 103 133.52 295.466 1.35448 0.100464 -0.223936 0.0
3 104 132.886 294.964 1.39994 -0.0050715 0.00817808 0.0
3 105 132.188 294.579 1.35839 -0.0216089 -0.059815 0.0
3 106 131.464 294.231 1.40488 -0.106859 0.174832 0.0
3 107 130.805 293.775 1.35956 -0.107366 0.0781315 0.0
3 108 130.116 293.372 1.40536 0.115521 -0.193238 0.0
3 109 129.496 292.854 1.36388 -0.167336 0.138177 0.0
3 110 128.769 292.513 1.4116 0.0521679 -0.091265 0.0
3 111 128.187 291.934 1.37018 0.151182 -0.351179 0.0
3 112 127.425 291.65 1.41817 0.0235043 -0.0436191 0.0
3 113 126.74 291.244 1.3742 -0.0717545 0.0547914 0.0
3 114 126.062 290.812 1.42583 -0.0868159 0.123376 0.0
3 115 125.301 290.544 1.37911 -0.16546 0.221949 0.0
3 116 124.64 290.075 1.426 0.0330278 -0.15286 0.0
3 117 123.903 289.763 1.38274 -0.0269571 -0.0480469 0.0
3 118 123.131 289.536 1.43178 -0.0632023 0.0525498 0.0
3 119 122.398 289.215 1.38712 -0.00183289 -0.099865 0.0
3 120 121.678 288.859 1.43275 -0.0707855 0.04458 0.0
3 121 121.008 288.419 1.38978 -0.0232636 -0.042846 0.0
3 122 120.366 287.938 1.43492 0.154122 -0.295271 0.0
3 123 119.743 287.436 1.39155 0.107835 -0.181621 0.0
3 124 119.011 287.084 1.43469 -0.0700358 0.0516188 0.0
3 125 118.47 286.469 1.39366 -0.0561267 0.0500484 0.0
3 126 117.713 286.146 1.43432 0.105685 -0.168308 0.0
3 127 117.129 285.599 1.39295 -0.0457964 0.0544782 0.0
3 128 116.491 285.108 1.43529 0.011459 -0.0344063 0.0
3 129 116.001 284.47 1.3967 -0.102426 0.105971 0.0
3 130 115.344 283.988 1.44306 -0.0337814 0.0396593 0.0
3 131 114.899 283.314 1.40462 0.17199 -0.160385 0.0
3 132 114.396 282.694 1.45339 -0.272191 0.249984 0.0
3 133 113.825 282.13 1.41701 -0.0824389 0.0718889 0.0
3 134 113.152 281.686 1.45983 -0.104943 0.102351 0.0
3 135 112.671 281.024 1.42498 -0.0848099 0.0762635 0.0
3 136 111.969 280.609 1.47244 0.131671 -0.12385 0.0
3 137 111.444 280.001 1.43945 -0.161395 0.181491 0.0
3 138 110.782 279.536 1.48754 -0.152213 0.206364 0.0
3 139 110.293 278.892 1.45651 -0.0485631 0.0940218 0.0
3 140 109.689 278.368 1.50261 0.135739 -0.0680761 0.0
3 141 109.194 277.73 1.4665 0.0723967 0.00604798 0.0
3 142 108.585 277.213 1.51131 0.341105 -0.289447 0.0
3 143 108.02 276.638 1.46658 0.0809121 -0.00456305 0.0
3 144 107.276 276.295 1.50804 0.160548 -0.0655521 0.0
3 145 106.662 275.786 1.46232 0.0941172 -0.0421688 0.0
3 146 106.033 275.292 1.50036 -0.170444 0.315891 0.0
3 147 105.426 274.766 1.44822 -0.194106 0.269655 0.0
3 148 104.732 274.364 1.48046 -0.0905953 0.157473 0.0
3 149 104.004 274.027 1.42385 -0.209174 0.234533 0.0
3 150 103.333 273.591 1.44962 -0.170211 0.227442 0.0
3 151 102.722 273.07 1.38742 0.153277 -0.330281 0.0
3 152 102.024 272.674 1.40689 0.110696 -0.226972 0.0
3 153 101.363 272.227 1.33969 -0.130958 0.0403843 0.0
3 154 100.768 271.684 1.35308 -0.157341 0.0646383 0.0
3 155 100.286 271.043 1.28658 -0.203818 0.0547312 0.0
3 156 99.916 270.332 1.28884 -0.138953 0.0174053 0.0
3 157 99.5555 269.622 1.22479 0.120893 -0.137091 0.0
3 158 99.2353 268.887 1.22404 -0.0403768 -0.0568349 0.0
3 159 98.9468 268.142 1.18467 -0.228469 -0.00012712 0.0
3 160 98.375 267.54 1.18773 -0.116525 -0.0328821 0.0
4 1 230.526 45.9499 0.0213149 0.0571773 0.201795 0.0
4 2 229.803 45.6027 0.0008751 -0.0841351 0.392584 0.0
4 3 229.05 45.3305 0.0284049 0.0580982 0.0239863 0.0
4 4 228.288 45.09 0.0 0.135107 -0.210286 0.0
4 5 227.505 44.9097 0.0449699 0.0197418 -0.0118981 0.0
4 6 226.716 44.7951 0.00328449 0.116991 -0.0339658 0.0
4 7 225.905 44.8437 0.0515883 0.0314188 0.147742 0.0
4 8 225.122 44.7007 0.00315352 0.0401896 0.232123 0.0
4 9 224.315 44.6497 0.0527886 0.00817626 0.031084 0.0
4 10 223.573 44.3111 0.00593639 0.0740553 -0.158685 0.0
4 11 222.777 44.2008 0.0557119 -0.00531773 0.206771 0.0
4 12 222.038 43.8736 0.0101418 -0.0468479 0.195764 0.0
4 13 221.223 43.8129 0.0563908 0.0154138 -0.284553 0.0
4 14 220.537 43.33 0.00833138 0.0388131 -0.287604 0.0
4 15 219.744 43.1971 0.0555423 0.044721 -0.0980594 0.0
4 16 218.978 42.9668 0.00377859 -0.0350655 0.104876 0.0
4 17 218.239 42.6494 0.052455 0.0190993 -0.0664317 0.0
4 18 217.554 42.2333 0.00777934 0.176604 -0.291243 0.0
4 19 216.878 41.8047 0.0548722 0.042363 -0.107248 0.0
4 20 216.19 41.3961 0.00683475 -0.184267 0.110569 0.0
4 21 215.527 40.9491 0.054114 -0.164305 0.310292 0.0
4 22 214.85 40.5135 0.00763778 0.0900335 -0.258254 0.0
4 23 214.084 40.2578 0.0573744 -0.121554 0.231261 0.0
4 24 213.371 39.8986 0.0101484 0.0104043 -0.0831383 0.0
4 25 212.557 39.7826 0.0582307 -0.182981 0.326062 0.0
4 26 211.864 39.3562 0.0126893 -0.203428 0.50882 0.0
4 27 211.115 39.0848 0.0593389 -0.0328699 -0.0286782 0.0
4 28 210.359 38.8124 0.011484 0.14528 -0.419386 0.0
4 29 209.568 38.6662 0.0598673 -0.0148634 -0.0692735 0.0
4 30 208.767 38.6534 0.0129469 -0.00102338 -0.0775812 0.0
4 31 207.975 38.4836 0.0644721 -0.0531083 -0.0533461 0.0
4 32 207.168 38.6099 0.0122842 -0.10455 -0.178337 0.0
4 33 206.373 38.5486 0.0613008 0.000943486 0.0920831 0.0
4 34 205.566 38.5272 0.0137113 -0.116413 -0.351054 0.0
4 35 204.774 38.6358 0.0621105 -0.0446548 0.0084904 0.0
4 36 203.983 38.7825 0.0183927 -0.0451263 -0.0751141 0.0
4 37 203.179 38.7757 0.0656661 -0.0434108 -0.147626 0.0
4 38 202.388 38.6148 0.0212494 -0.0133436 -0.111566 0.0
4 39 201.598 38.5221 0.0726158 -0.0629993 -0.0239451 0.0
4 40 200.785 38.6109 0.026025 0.00387995 0.225168 0.0
4 41 200.001 38.4118 0.0790162 0.00411387 -0.124632 0.0
4 42 199.199 38.3827 0.0303753 -0.0964008 0.0701813 0.0
4 43 198.403 38.354 0.0820931 -0.0576339 0.221684 0.0
4 44 197.612 38.6166 0.0347896 -0.102537 0.649312 0.0
4 45 196.813 38.5182 0.081784 -0.10627 0.303252 0.0
4 46 196.013 38.5131 0.0365736 0.00951945 -0.141529 0.0
4 47 195.217 38.4214 0.0820211 -0.0620129 0.0242378 0.0
4 48 194.432 38.2644 0.0384513 -0.0623992 0.209355 0.0
4 49 193.666 38.0355 0.0792796 -0.0904088 -0.0685671 0.0
4 50 192.88 37.8847 0.0313188 -0.0650157 0.103096 0.0
4 51 192.113 37.6467 0.0722843 -0.188643 0.343336 0.0
4 52 191.303 37.6305 0.0204945 0.00902003 -0.282792 0.0
4 53 190.516 37.5185 0.0658213 -0.143921 -0.0100633 0.0
4 54 189.714 37.465 0.0174337 0.00550326 -0.168547 0.0
4 55 188.921 37.6706 0.0618655 -0.0089002 -0.206465 0.0
4 56 188.118 37.5358 0.0138285 -0.0202812 -0.27697 0.0
4 57 187.322 37.7153 0.0601029 0.0381536 -0.199813 0.0
4 58 186.523 37.6139 0.0116705 -0.00606422 -0.102213 0.0
4 59 185.725 37.7745 0.0605978 -0.0619413 -0.0294581 0.0
4 60 184.928 37.7079 0.0102575 -0.0361778 -0.377249 0.0
4 61 184.132 37.6167 0.058213 -0.0656412 0.109784 0.0
4 62 183.374 37.3326 0.00725707 -0.0488411 -0.139073 0.0
4 63 182.606 37.1336 0.058831 -0.0410445 0.201652 0.0
4 64 181.831 36.9214 0.00605445 0.00430288 -0.080083 0.0
4 65 181.049 36.7682 0.0577221 0.040803 -0.409031 0.0
4 66 180.275 36.5543 0.00710918 -0.0403781 -0.0947063 0.0
4 67 179.485 36.427 0.0567502 0.00974499 -0.267839 0.0
4 68 178.683 36.3739 0.00870652 -0.072124 0.0584351 0.0
4 69 177.885 36.4862 0.0590721 -0.0434057 -0.290018 0.0
4 70 177.104 36.6327 0.00872279 -0.177606 -0.215247 0.0
4 71 176.324 36.8385 0.0597496 -0.00714313 -0.0449522 0.0
4 72 175.571 37.0999 0.0122604 -0.00908708 0.00957783 0.0
4 73 174.902 37.5765 0.0611465 0.0828654 0.0835143 0.0
4 74 174.136 37.8094 0.0133627 -0.175729 -0.284847 0.0
4 75 173.413 38.1614 0.0591766 0.0244759 -0.0240114 0.0
4 76 172.653 38.4106 0.0115484 0.0409951 0.263817 0.0