# 12000000
#nworms:800
#np:80
1 1 125.338 155.494 3.1987 0.157605 -0.0312393 0.0
1 2 125.611 154.736 3.18157 -0.31779 -0.133137 0.0
1 3 125.749 153.949 3.17273 -0.0105011 -0.078714 0.0
1 4 125.958 153.175 3.16071 -0.071055 -0.0780074 0.0
1 5 125.902 152.357 3.15344 -0.20635 -0.103895 0.0
1 6 126.165 151.589 3.12822 -0.0677367 -0.075973 0.0
1 7 126.204 150.789 3.09073 0.122717 -0.0448746 0.0
1 8 126.371 150.009 2.98641 -0.127668 -0.081557 0.0
1 9 126.409 149.212 2.927 -0.30928 -0.10083 0.0
1 10 126.434 148.416 2.85072 0.0304048 -0.0716399 0.0
1 11 126.529 147.621 2.8273 0.00862113 -0.0778198 0.0
1 12 126.569 146.824 2.77176 -0.0313629 -0.0764996 0.0
1 13 126.625 146.026 2.77145 -0.236939 -0.0949057 0.0
1 14 126.808 145.243 2.72894 -0.0849534 -0.0797689 0.0
1 15 126.852 144.443 2.75291 -0.0606434 -0.0658893 0.0
1 16 126.961 143.65 2.71906 0.18071 -0.048239 0.0
1 17 126.886 142.843 2.75254 0.135603 -0.0543887 0.0
1 18 127.056 142.053 2.7249 -0.210795 -0.0617637 0.0
1 19 126.946 141.243 2.7637 0.135787 -0.0355296 0.0
1 20 127.081 140.453 2.74418 0.285253 -0.0276333 0.0
1 21 127.243 139.667 2.78521 -0.150105 -0.0584602 0.0
1 22 127.337 138.873 2.77647 -0.130279 -0.0657133 0.0
1 23 127.387 138.069 2.80556 0.15353 0.00459583 0.0
1 24 127.599 137.294 2.7908 -0.125459 -0.0345868 0.0
1 25 127.766 136.511 2.78242 -0.144654 -0.0272439 0.0
1 26 127.897 135.722 2.73247 -0.141628 -0.00670224 0.0
1 27 128.105 134.947 2.66804 -0.164054 0.00794979 0.0
1 28 128.162 134.15 2.5768 -0.0893298 0.0233667 0.0
1 29 128.217 133.359 2.46992 -0.38825 0.0329233 0.0
1 30 128.147 132.566 2.34069 -0.266473 0.0484964 0.0
1 31 128.166 131.774 2.23735 0.143701 0.051654 0.0
1 32 128.114 130.977 2.1433 -0.00177637 0.0624116 0.0
1 33 128.212 130.179 2.09048 -0.12815 0.0658097 0.0
1 34 128.198 129.38 2.03921 -0.0436982 0.0698875 0.0
1 35 128.169 128.579 2.02889 -0.359544 0.0839595 0.0
1 36 128.145 127.78 2.00187 0.241522 0.0669424 0.0
1 37 128.029 126.984 2.02547 -0.313395 0.0866757 0.0
1 38 128.089 126.181 2.00519 0.14776 0.0654178 0.0
1 39 127.973 125.385 2.04342 -0.0658528 0.0767133 0.0
1 40 127.994 124.584 2.01153 -0.274923 0.0822016 0.0
1 41 127.961 123.784 2.05264 -0.251722 0.0749571 0.0
1 42 127.83 122.992 2.01296 0.0492312 0.0439054 0.0
1 43 127.696 122.206 2.0566 0.184385 -0.0101647 0.0
1 44 127.577 121.412 2.01198 -0.209534 0.0806609 0.0
1 45 127.255 120.669 2.05814 -0.00654891 0.0287034 0.0
1 46 126.996 119.919 2.01362 -0.185579 0.0678062 0.0
1 47 126.975 119.093 2.05816 0.021903 0.0132672 0.0
1 48 126.592 118.372 2.01334 0.00959212 0.0139946 0.0
1 49 126.467 117.576 2.05881 -0.00106403 0.0101688 0.0
1 50 126.2 116.822 2.01438 -0.198001 0.0700518 0.0
1 51 125.916 116.073 2.05963 -0.0857471 0.026604 0.0
1 52 125.754 115.288 2.01108 -0.256907 0.0896595 0.0
1 53 125.552 114.513 2.06178 0.0700084 -0.0228253 0.0
1 54 125.184 113.794 2.01313 0.208737 -0.0877851 0.0
1 55 124.94 113.034 2.0598 -0.0606942 0.0115092 0.0
1 56 124.647 112.289 2.01083 -0.0733015 0.00290278 0.0
1 57 124.511 111.493 2.06072 -0.105918 0.000891001 0.0
1 58 124.207 110.751 2.01112 0.176328 -0.0857679 0.0
1 59 123.956 109.99 2.05903 -0.00117587 -0.0607285 0.0
1 60 123.825 109.198 2.01357 0.0274713 -0.0661888 0.0
1 61 123.698 108.41 2.05968 -0.180469 -0.054736 0.0
1 62 123.5 107.632 2.01518 -0.060985 -0.0661823 0.0
1 63 123.394 106.84 2.06349 -0.31849 -0.0578534 0.0
1 64 123.246 106.052 2.0223 0.12746 -0.114646 0.0
1 65 123.436 105.239 2.065 0.0606182 -0.0785884 0.0
1 66 123.251 104.451 2.02899 0.296246 -0.126421 0.0
1 67 123.25 103.651 2.0687 -0.00268599 -0.0881047 0.0
1 68 123.098 102.859 2.03362 -0.288235 -0.0856381 0.0
1 69 123.085 102.059 2.06929 0.0500579 -0.0929289 0.0
1 70 123.132 101.257 2.03656 -0.15574 -0.0978891 0.0
1 71 123.265 100.469 2.0632 -0.100197 -0.102378 0.0
1 72 123.435 99.685 2.0403 0.0313201 -0.0713667 0.0
1 73 123.501 98.8874 2.06448 -0.0572318 -0.0865722 0.0
1 74 123.553 98.0874 2.0435 -0.107321 -0.0771246 0.0
1 75 123.757 97.3091 2.05872 0.00668303 -0.0718087 0.0
1 76 123.814 96.5075 2.05288 0.101326 -0.0262147 0.0
1 77 123.995 95.7271 2.06033 -0.217376 -0.102687 0.0
1 78 124.272 94.9728 2.0573 0.0129805 -0.0348234 0.0
1 79 124.427 94.1864 2.07484 0.0740862 -0.0227381 0.0
1 80 124.648 93.4183 2.10192 0.176877 0.0201076 0.0
2 1 304.791 243.064 1.14342 0.286658 -0.104461 0.0
2 2 304.731 242.273 1.2265 0.000121505 -0.0790479 0.0
2 3 304.52 241.491 1.27244 0.118694 -0.0782999 0.0
2 4 304.579 240.686 1.35777 -0.212818 -0.0523369 0.0
2 5 304.463 239.894 1.38109 -0.0701308 -0.0746836 0.0
2 6 304.312 239.11 1.45456 -0.0233283 -0.0776481 0.0
2 7 304.006 238.36 1.45517 -0.415546 0.0220133 0.0
2 8 303.907 237.562 1.52188 -0.0249782 -0.0770497 0.0
2 9 303.711 236.787 1.50428 -0.211572 -0.0100943 0.0
2 10 303.604 235.991 1.56721 0.252899 -0.135755 0.0
2 11 303.354 235.226 1.54446 0.0856688 -0.0766493 0.0
2 12 303.074 234.48 1.6089 -0.506804 0.112453 0.0
2 13 302.786 233.729 1.57972 0.233907 -0.128124 0.0
2 14 302.626 232.944 1.64269 0.293109 -0.120044 0.0
2 15 302.449 232.163 1.6094 -0.224818 -0.0231129 0.0
2 16 302.402 231.36 1.67214 0.133344 -0.0996356 0.0
2 17 302.259 230.572 1.64171 -0.221912 -0.0198272 0.0
2 18 301.973 229.819 1.70208 0.189136 -0.109333 0.0
2 19 301.798 229.038 1.66987 0.0881301 -0.110047 0.0
2 20 301.56 228.275 1.72698 -0.360542 0.0594797 0.0
2 21 301.292 227.52 1.69311 0.316386 -0.183418 0.0
2 22 300.95 226.796 1.74373 -0.093661 -0.0315891 0.0
2 23 300.621 226.067 1.70667 0.0123738 -0.0409917 0.0
2 24 300.338 225.318 1.74544 -0.222529 0.0277034 0.0
2 25 300.071 224.565 1.69818 0.0279419 -0.0332074 0.0
2 26 299.865 223.789 1.73563 -0.121268 -0.00893703 0.0
2 27 299.774 222.994 1.68351 0.121593 -0.0418375 0.0
2 28 299.706 222.197 1.72313 0.0136555 -0.0269435 0.0
2 29 299.71 221.397 1.67172 -0.337346 -0.0262238 0.0
2 30 299.833 220.601 1.71969 0.192444 -0.026193 0.0
2 31 299.869 219.806 1.67179 -0.369378 -0.036857 0.0
2 32 299.888 219.001 1.71901 0.0854005 -0.0434268 0.0
2 33 299.854 218.209 1.67431 -0.121524 -0.0567765 0.0
2 34 299.643 217.416 1.71829 0.173789 -0.08223 0.0
2 35 299.878 216.612 1.6749 -0.138669 -0.0828199 0.0
2 36 299.774 215.817 1.71425 0.144166 -0.106789 0.0
2 37 299.767 215.016 1.67364 -0.0546811 -0.116906 0.0
2 38 300.05 214.237 1.70943 0.147146 -0.129562 0.0
2 39 300.035 213.437 1.66725 0.11753 -0.119765 0.0
2 40 299.995 212.636 1.70121 -0.00408772 -0.145429 0.0
2 41 299.952 211.838 1.66149 -0.102101 -0.134175 0.0
2 42 300.024 211.035 1.68935 -0.145194 -0.158558 0.0
2 43 299.976 210.237 1.64694 0.254444 -0.151248 0.0
2 44 299.879 209.441 1.6805 -0.0268935 -0.172764 0.0
2 45 299.786 208.648 1.64228 0.00327883 -0.131914 0.0
2 46 299.798 207.843 1.67642 0.446331 -0.197606 0.0
2 47 299.628 207.056 1.63011 -0.0364834 -0.124714 0.0
2 48 299.547 206.262 1.6644 0.00109616 -0.125446 0.0
2 49 299.544 205.459 1.61076 -0.0882448 -0.116491 0.0
2 50 299.455 204.666 1.64563 -0.0695065 -0.11245 0.0
2 51 299.461 203.862 1.59352 0.198194 -0.1212 0.0
2 52 299.354 203.07 1.62658 0.199643 -0.119984 0.0
2 53 299.066 202.31 1.57215 0.080689 -0.0793348 0.0
2 54 298.989 201.513 1.60547 0.119536 -0.0811617 0.0
2 55 298.879 200.722 1.54993 0.0781141 -0.0628279 0.0
2 56 298.781 199.928 1.58602 -0.251807 -0.00315193 0.0
2 57 298.545 199.159 1.53468 0.255877 -0.0763999 0.0
2 58 298.438 198.365 1.57502 -0.190029 0.0139899 0.0
2 59 298.281 197.58 1.52499 -0.057329 0.00394898 0.0
2 60 297.994 196.828 1.57044 0.137941 -0.0434021 0.0
2 61 297.957 196.012 1.51967 0.0347874 0.011956 0.0
2 62 297.689 195.258 1.56442 0.119807 -0.0166371 0.0
2 63 297.414 194.504 1.51875 -0.00265897 0.0528743 0.0
2 64 297.148 193.752 1.56495 0.263099 -0.051402 0.0
2 65 296.612 193.116 1.52168 0.19979 -0.0325874 0.0
2 66 296.437 192.318 1.56994 -0.275766 0.214761 0.0
2 67 296.1 191.596 1.53593 0.343695 -0.0717957 0.0
2 68 295.743 190.875 1.59108 0.0287099 0.0713609 0.0
2 69 295.611 190.07 1.55558 0.416762 -0.0994762 0.0
2 70 295.303 189.335 1.61683 -0.158177 0.120025 0.0
2 71 294.964 188.606 1.58502 -0.149756 0.120889 0.0
2 72 294.739 187.836 1.65164 0.0586252 0.0315742 0.0
2 73 294.582 187.052 1.62181 0.00882045 0.0475251 0.0
2 74 294.398 186.27 1.68833 -0.00793176 0.0332842 0.0
2 75 294.039 185.548 1.668 -0.0123581 0.0218589 0.0
2 76 293.696 184.829 1.73588 -0.0736523 0.0552638 0.0
2 77 293.417 184.077 1.72792 -0.305593 0.114059 0.0
2 78 293.185 183.312 1.79363 0.0212955 0.0138594 0.0
2 79 292.962 182.545 1.80538 -0.263435 0.0847163 0.0
2 80 292.889 181.741 1.86309 -0.128785 0.0407781 0.0
3 1 176.993 95.9051 3.19973 0.17941 -0.0905602 0.0
3 2 176.379 95.275 3.18346 0.199246 -0.0470267 0.0
3 3 176.264 94.4814 3.19492 -0.30487 0.0918416 0.0
3 4 176.07 93.7024 3.16815 0.104253 0.0268379 0.0
3 5 176.011 92.9016 3.19719 0.105652 -0.0163334 0.0
3 6 175.944 92.1072 3.16407 0.181074 -0.0543988 0.0
3 7 175.981 91.3018 3.19856 0.220222 -0.0189431 0.0
3 8 175.756 90.5183 3.16239 0.0413249 -0.0912785 0.0
3 9 175.89 89.7045 3.19959 -0.211667 -0.00378893 0.0
3 10 175.678 88.9198 3.16115 0.0912746 -0.0881822 0.0
3 11 175.689 88.1165 3.19901 -0.048237 -0.050372 0.0
3 12 175.669 87.3187 3.15543 0.0472676 -0.0614808 0.0
3 13 175.462 86.5314 3.19671 -0.166728 -0.0127598 0.0
3 14 175.533 85.7243 3.156 0.109439 -0.0391453 0.0
3 15 175.447 84.93 3.19958 -0.293024 0.0400606 0.0
3 16 175.42 84.128 3.1559 0.11842 -0.0282267 0.0
3 17 175.504 83.3276 3.19476 -0.0517744 0.0883918 0.0
3 18 175.72 82.555 3.15328 0.12643 -0.00925164 0.0
3 19 175.908 81.777 3.19847 -0.419489 -0.0448918 0.0
3 20 175.95 80.9718 3.15189 -0.215746 -0.0275366 0.0
3 21 176.039 80.1798 3.19682 -0.0347628 -0.0101864 0.0
3 22 176.223 79.3964 3.1544 -0.0315265 -0.0514944 0.0
3 23 176.312 78.6025 3.19952 -0.187378 0.00161093 0.0
3 24 176.542 77.8273 3.15925 0.0917287 0.0699133 0.0
3 25 176.578 77.0232 3.1982 0.157826 -0.00819059 0.0
3 26 176.628 76.23 3.16156 -0.145996 0.0266471 0.0
3 27 176.663 75.4221 3.19471 -0.00197939 0.0198126 0.0
3 28 176.843 74.6435 3.16645 0.0813986 0.074704 0.0
3 29 177.198 73.9066 3.18953 0.147527 0.0887993 0.0
3 30 177.211 73.0863 3.17453 -0.148364 -0.0264097 0.0
3 31 177.4 72.3151 3.18058 0.296819 0.0679328 0.0
3 32 177.739 71.5752 3.18339 -0.122868 0.0403913 0.0
3 33 177.927 70.8023 3.17066 0.194415 -0.00194826 0.0
3 34 178.09 70.0147 3.19063 0.183243 0.0770417 0.0
3 35 178.333 69.256 3.16417 0.0103826 -0.0456299 0.0
3 36 178.428 68.4503 3.1981 -0.0190687 0.0595952 0.0
3 37 178.807 67.7303 3.16079 0.205009 0.0251678 0.0
3 38 179.027 66.9694 3.19999 0.237804 0.0924692 0.0
3 39 179.342 66.2225 3.15351 -0.147966 -0.0650021 0.0
3 40 179.442 65.4256 3.19971 -0.0432398 0.00267893 0.0
3 41 179.527 64.6325 3.1527 0.0604816 -0.0259551 0.0
3 42 179.579 63.8322 3.19984 -0.158203 -0.0150516 0.0
3 43 179.735 63.0477 3.15352 -0.146513 -0.0555747 0.0
3 44 179.751 62.2422 3.19985 -0.098146 -0.0387158 0.0
3 45 179.898 61.4564 3.15359 0.176368 0.0230954 0.0
3 46 180.18 60.6998 3.19963 -0.268945 -0.0942002 0.0
3 47 180.291 59.905 3.15285 -0.228609 -0.0328598 0.0
3 48 180.486 59.1285 3.1997 0.0852329 0.0209882 0.0
3 49 180.535 58.3221 3.15352 0.272671 0.0822646 0.0
3 50 180.779 57.5519 3.19999 0.07084 0.0483568 0.0
3 51 181.154 56.8417 3.15479 0.00742147 0.0339608 0.0
3 52 181.666 56.2167 3.19887 0.0480485 0.00282358 0.0
3 53 182.035 55.506 3.15525 -0.306761 -0.164024 0.0
3 54 182.397 54.7912 3.19907 0.203038 0.15353 0.0
3 55 182.79 54.0954 3.15982 -0.25281 -0.171867 0.0
3 56 183.275 53.4524 3.19856 -0.224737 -0.0707281 0.0
3 57 183.642 52.7388 3.15477 0.106921 0.072372 0.0
3 58 183.962 52.0071 3.19893 0.201174 0.101487 0.0
3 59 184.389 51.3233 3.15737 -0.221967 -0.107149 0.0
3 60 184.648 50.5604 3.19941 -0.117781 -0.0204999 0.0
3 61 184.91 49.8104 3.15436 0.455993 0.113841 0.0
3 62 185.284 49.0916 3.19972 0.216943 0.0622911 0.0
3 63 185.422 48.2942 3.15574 -0.287357 -0.112647 0.0
3 64 185.682 47.5408 3.19989 0.48834 0.0512044 0.0
3 65 185.856 46.7525 3.15695 0.166996 0.00701269 0.0
3 66 185.883 45.9499 3.19983 -0.184304 -0.079516 0.0
3 67 185.793 45.152 3.1568 0.195313 -0.0486623 0.0
3 68 185.739 44.3541 3.19999 0.0310188 -0.0962404 0.0
3 69 185.586 43.566 3.15821 -0.268071 -0.017816 0.0
3 70 185.581 42.7591 3.19935 0.318227 -0.0684685 0.0
3 71 185.327 41.9884 3.15907 0.0627163 -0.0389226 0.0
3 72 185.312 41.1797 3.19907 0.290289 -0.0215143 0.0
3 73 185.158 40.3963 3.16096 0.205928 -0.0109717 0.0
3 74 184.931 39.6218 3.19998 0.096707 0.0658158 0.0
3 75 184.922 38.8132 3.16722 -0.0476749 0.0614307 0.0
3 76 184.796 38.0243 3.19911 0.0951829 0.0608863 0.0
3 77 184.68 37.2325 3.17061 0.176582 -0.0305611 0.0
3 78 184.665 36.4286 3.19698 0.0445296 0.0275531 0.0
3 79 184.423 35.6529 3.18249 0.125048 -0.0359739 0.0
3 80 184.38 34.8545 3.19926 0.148878 -0.0352251 0.0
4 1 146.052 125.947 3.2 -0.211463 -0.0479041 0.0
4 2 146.185 125.171 3.17857 0.0793491 0.0851233 0.0
4 3 146.524 124.417 3.19547 -0.0781975 -0.0633043 0.0
4 4 146.488 123.6 3.16316 -0.102476 -0.0530278 0.0
4 5 146.676 122.822 3.19797 -0.239761 -0.0768732 0.0
4 6 146.872 122.048 3.15971 0.167752 -0.105637 0.0
4 7 146.788 121.225 3.19959 0.0655701 -0.0632735 0.0
4 8 147.121 120.468 3.15383 -0.150484 -0.103172 0.0
4 9 147.142 119.665 3.19917 0.0289527 -0.114514 0.0
4 10 147.279 118.872 3.15137 0.0437841 -0.106532 0.0
4 11 147.549 118.115 3.19939 -0.190109 -0.114837 0.0
4 12 147.781 117.353 3.15074 -0.371291 -0.242887 0.0
4 13 148.037 116.589 3.19993 -0.202308 -0.114286 0.0
4 14 148.026 115.77 3.15088 -0.286064 -0.173859 0.0
4 15 148.348 115.019 3.19989 -0.211412 -0.146057 0.0
4 16 148.436 114.224 3.14998 -0.117655 -0.0837067 0.0
4 17 148.665 113.449 3.19964 0.00800636 -0.0420222 0.0
4 18 148.683 112.645 3.1512 0.250005 0.00676064 0.0
4 19 148.721 111.845 3.19873 0.0166021 -0.0515403 0.0
4 20 148.58 111.05 3.15048 -0.0105215 0.0397776 0.0
4 21 148.608 110.246 3.1983 0.018286 -0.0271343 0.0
4 22 148.285 109.479 3.15037 0.0180452 -0.0190685 0.0
4 23 148.289 108.675 3.19933 0.140532 0.0260661 0.0
4 24 148.152 107.884 3.14956 -0.0366681 -0.0146004 0.0
4 25 147.96 107.11 3.19994 -0.0420049 0.0732771 0.0
4 26 147.841 106.311 3.14744 0.278185 -0.0923007 0.0
4 27 147.573 105.56 3.19995 -0.0583464 0.133359 0.0
4 28 147.255 104.818 3.14781 0.0282989 -0.0303265 0.0
4 29 146.766 104.178 3.19991 0.215964 -0.120247 0.0
4 30 146.208 103.602 3.14766 0.0609723 -0.0245754 0.0
4 31 145.561 103.127 3.19739 0.0953969 0.139995 0.0
4 32 144.869 102.719 3.14972 0.126908 -0.0694602 0.0
4 33 144.106 102.465 3.19482 0.0585693 0.0139297 0.0
4 34 143.359 102.18 3.15288 0.255136 -0.150513 0.0
4 35 142.606 101.91 3.18976 0.112867 -0.167673 0.0
4 36 141.884 101.554 3.1613 0.164118 0.0553876 0.0
4 37 141.113 101.338 3.18318 0.0404312 0.0522496 0.0
4 38 140.351 101.095 3.17029 0.0444937 0.176837 0.0
4 39 139.585 100.861 3.17226 0.137731 -0.317052 0.0
4 40 138.806 100.677 3.18042 0.0333132 0.0431827 0.0
4 41 138.022 100.53 3.1625 -0.055117 0.113195 0.0
4 42 137.237 100.366 3.18916 -0.0538329 0.336002 0.0
4 43 136.471 100.131 3.15707 -0.00433645 0.0473388 0.0
4 44 135.793 99.6706 3.19653 -0.125761 0.099999 0.0
4 45 134.963 99.5919 3.15514 0.0676172 -0.149112 0.0
4 46 134.263 99.1933 3.19904 -0.100157 0.214323 0.0
4 47 133.5 98.9431 3.1511 -0.212481 0.252647 0.0
4 48 132.728 98.7396 3.2 -0.0348726 -0.0358218 0.0
4 49 131.996 98.3965 3.15146 -0.090023 0.0175501 0.0
4 50 131.228 98.181 3.19978 -0.125779 -0.0636584 0.0
4 51 130.498 97.8451 3.15075 0.026429 -0.138087 0.0
4 52 129.727 97.6238 3.1992 0.00909242 -0.238267 0.0
4 53 129.056 97.1584 3.15117 -0.00942199 -0.0274014 0.0
4 54 128.296 96.9048 3.19952 -0.0229618 0.108807 0.0
4 55 127.584 96.5346 3.14928 0.12929 -0.0289559 0.0
4 56 126.921 96.0903 3.1981 -0.0104006 0.175421 0.0
4 57 126.226 95.696 3.14745 0.0289903 -0.0302507 0.0
4 58 125.512 95.3372 3.19778 -0.11084 0.212779 0.0
4 59 124.733 95.1178 3.14467 -0.0445565 0.0802001 0.0
4 60 123.937 95.0538 3.19933 0.0212852 0.189503 0.0
4 61 123.136 95.0269 3.15087 -0.0498834 -0.213372 0.0
4 62 122.343 95.1399 3.19899 0.0591523 0.125069 0.0
4 63 121.567 95.3338 3.1482 0.0272754 0.119492 0.0
4 64 120.777 95.4515 3.19988 0.0836945 0.168677 0.0
4 65 119.996 95.6179 3.14659 0.00203503 -0.0103887 0.0
4 66 119.2 95.7079 3.19953 0.0515716 0.345893 0.0
4 67 118.437 95.9725 3.14416 0.034775 -0.0171368 0.0
4 68 117.699 96.2693 3.2 0.0470726 0.00541282 0.0
4 69 116.973 96.615 3.14239 0.0521504 0.0858074 0.0
4 70 116.207 96.8497 3.19977 -0.000519473 0.0560062 0.0
4 71 115.48 97.1837 3.15232 0.0352583 -0.00768292 0.0
4 72 114.672 97.3028 3.19862 -0.082636 -0.149947 0.0
4 73 113.962 97.6844 3.15649 0.0463902 0.129437 0.0
4 74 113.201 97.9358 3.19997 -0.040164 -0.0479746 0.0
4 75 112.417 98.1016 3.16515 -0.0339071 -0.056761 0.0
4 76 111.673 98.4143 3.19917 -0.0963377 -0.189994 0.0
4 77 110.892 98.58 3.15989 0.0260392 -0.145194 0.0
4 78 110.127 98.8296 3.19286 -0.0705517 0.129807 0.0
4 79 109.341 98.9656 3.17304 0.0810379 -0.0342661 0.0
4 80 108.529 98.9093 3.19966 -0.0584501 -0.0665705 0.0
5 1 256.82 131.429 0.0283183 0.121122 0.26585 0.0
5 2 256.263 132.052 0.0102533 -0.277513 -0.0358026 0.0
5 3 255.557 132.412 0.0323105 -0.0283862 0.179279 0.0
5 4 254.822 132.75 0.0035585 0.0158648 0.176858 0.0
5 5 254.166 133.206 0.0370252 -0.2034 -0.0361692 0.0
5 6 253.442 133.554 0.00465841 0.0630763 0.223079 0.0
5 7 252.746 133.949 0.0419901 -0.0900412 0.0514331 0.0
5 8 252.153 134.5 0.00868144 -0.200037 -0.0483656 0.0
5 9 251.472 134.919 0.0461174 -0.104633 -0.0375261 0.0
5 10 250.826 135.393 0.00992602 -0.0557664 -0.107548 0.0
5 11 250.221 135.922 0.0426521 -0.17614 -0.130758 0.0
5 12 249.573 136.387 0.0100306 0.0609246 0.0817821 0.0
5 13 248.903 136.834 0.0383804 -0.149896 -0.141752 0.0
5 14 248.307 137.367 0.00631987 0.0515615 -0.0262731 0.0
5 15 247.782 137.983 0.0209085 -0.0146222 -0.153696 0.0
5 16 247.086 138.399 0.000164733 0.0958929 0.119915 0.0
5 17 246.602 139.067 0.0257847 0.0118633 -0.112856 0.0
5 18 245.829 139.385 0.0 0.0057653 -0.0197359 0.0
5 19 245.254 139.943 0.0310997 -0.0654183 -0.152825 0.0
5 20 244.712 140.531 0.00571511 0.0343416 0.0327399 0.0
5 21 244.178 141.133 0.0429541 -0.067394 0.00143968 0.0
5 22 243.521 141.598 0.0104025 0.130976 0.145834 0.0
5 23 242.85 142.031 0.0442793 0.040955 0.0380019 0.0
5 24 242.199 142.495 0.00897771 -0.237934 -0.299012 0.0
5 25 241.561 142.98 0.0470298 -0.0773165 -0.208151 0.0
5 26 240.894 143.416 0.0106179 0.22862 0.285833 0.0
5 27 240.293 143.957 0.0520654 -0.0207763 -0.130358 0.0
5 28 239.59 144.34 0.00817156 -0.167445 -0.0686718 0.0
5 29 238.836 144.634 0.0445666 0.0392461 -0.0832126 0.0
5 30 238.166 145.06 0.00286949 -0.303216 -0.0329147 0.0
5 31 237.514 145.543 0.0356716 0.0634555 0.0982043 0.0
5 32 237.058 146.213 0.00133498 -0.0164785 0.12851 0.0
5 33 236.596 146.862 0.0342455 -0.237883 -0.0904622 0.0
5 34 236.098 147.491 0.00104148 0.172676 0.145841 0.0
5 35 235.6 148.118 0.0309083 -0.0422671 -0.0616688 0.0
5 36 235.182 148.804 0.000990358 -0.073216 0.00747805 0.0
5 37 234.678 149.426 0.0318404 -0.0562611 -0.0270719 0.0
5 38 234.132 150.011 0.00374776 -0.154044 -0.162481 0.0
5 39 233.656 150.658 0.0357436 -0.123847 0.00564418 0.0
5 40 233.056 151.195 0.00444984 -0.138488 -0.121981 0.0
5 41 232.476 151.744 0.0425639 -0.025938 -0.0307426 0.0
5 42 231.968 152.365 0.00565182 0.168437 0.133254 0.0
5 43 231.502 153.012 0.0471643 -0.247602 -0.142737 0.0
5 44 231.043 153.673 0.00760552 -0.00127337 0.0245331 0.0
5 45 230.497 154.258 0.0433089 -0.531806 -0.2702 0.0
5 46 229.968 154.857 0.00635291 -0.112758 -0.0238962 0.0
5 47 229.487 155.499 0.0374819 -0.137357 -0.140913 0.0
5 48 229.066 156.179 0.00425406 0.00362843 0.088731 0.0
5 49 228.611 156.836 0.0224717 0.168855 0.14675 0.0
5 50 228.173 157.507 0.000500845 -0.115806 -0.0915095 0.0
5 51 227.837 158.234 0.0176674 -0.138438 0.0211323 0.0
5 52 227.467 158.943 0.00147186 -0.00186576 0.0118193 0.0
5 53 227.082 159.645 0.0262023 0.132277 0.0313231 0.0
5 54 226.644 160.317 0.0043932 0.0142406 0.0311429 0.0
5 55 226.088 160.897 0.0375721 0.127187 0.13018 0.0
5 56 225.506 161.442 0.00939569 -0.0812856 0.0389417 0.0
5 57 224.846 161.903 0.0416849 0.11314 0.140117 0.0
5 58 224.394 162.594 0.00794775 0.0424401 0.186528 0.0
5 59 223.752 163.073 0.0439771 0.120886 0.122852 0.0
5 60 223.15 163.601 0.00592168 0.12427 0.152545 0.0
5 61 222.558 164.136 0.0462257 -0.148013 -0.180065 0.0
5 62 222.069 164.781 0.0049217 -0.0823838 0.010674 0.0
5 63 221.446 165.286 0.0491527 -0.0282229 -0.0510329 0.0
5 64 220.923 165.901 0.00328614 0.00621714 0.0337566 0.0
5 65 220.29 166.391 0.0491427 0.0976308 0.0967632 0.0
5 66 219.636 166.856 0.00483893 -0.0134186 0.148748 0.0
5 67 218.905 167.193 0.0491986 -0.0481799 -0.156024 0.0
5 68 218.212 167.587 0.00433056 -0.0781999 0.0295533 0.0
5 69 217.557 168.055 0.0451202 0.0126879 0.103114 0.0
5 70 216.849 168.426 0.00429983 -0.24104 -0.246074 0.0
5 71 216.116 168.761 0.0426566 -0.00822549 0.321425 0.0
5 72 215.333 168.947 0.000834395 -0.220906 -0.0794185 0.0
5 73 214.554 169.127 0.0390488 -0.149081 0.0549032 0.0
5 74 213.817 169.455 0.00126994 -0.149934 0.0422363 0.0
5 75 213.087 169.776 0.0377426 -0.209246 0.0533237 0.0
5 76 212.316 170.012 0.00286423 -0.14199 -0.0626683 0.0
5 77 211.546 170.227 0.0339259 -0.142952 0.0889256 0.0
5 78 210.798 170.524 0.00442572 -0.0599702 0.031799 0.0
5 79 210.132 170.981 0.021788 -0.237226 0.024631 0.0
5 80 209.369 171.247 0.000723164 -0.145101 0.0184118 0.0
6 1 304.816 249.731 0.000968652 -0.151785 -0.149291 0.0
6 2 305.148 248.998 0.0270859 -0.235626 -0.059292 0.0
6 3 305.628 248.353 0.0104972 0.0764293 -0.0385565 0.0
6 4 305.836 247.554 0.0435704 -0.14724 -0.0664053 0.0
6 5 306.29 246.894 0.00932915 -0.222065 -0.174245 0.0
6 6 306.726 246.227 0.0521645 -0.174666 -0.157086 0.0
6 7 307.215 245.588 0.0123653 -0.00863373 -0.0177019 0.0
6 8 307.582 244.878 0.0645773 0.107325 -0.0494541 0.0
6 9 308.062 244.233 0.0157725 -0.0737948 -0.210046 0.0
6 10 308.546 243.596 0.0715804 0.220732 0.012677 0.0
6 11 309.095 243.013 0.0211163 0.160339 -0.0926973 0.0
6 12 309.662 242.439 0.0782635 -0.0129951 -0.17032 0.0
6 13 310.034 241.718 0.0322484 0.205729 -0.08018 0.0
6 14 310.397 241.006 0.0875402 0.259086 0.0597269 0.0
6 15 310.583 240.214 0.0420106 -0.266353 -0.0575015 0.0
6 16 310.701 239.425 0.08682 -0.0203685 0.018663 0.0
6 17 310.651 238.615 0.0456579 -0.254733 -0.010397 0.0
6 18 310.72 237.821 0.0887307 0.0327906 -0.0281521 0.0
6 19 310.841 237.03 0.0432803 0.0833349 -0.132934 0.0
6 20 310.775 236.218 0.085841 -0.128972 -0.0941823 0.0
6 21 310.948 235.437 0.0414087 -0.32996 -0.180776 0.0
6 22 311.001 234.63 0.0756711 0.1581 -0.158773 0.0
6 23 311.328 233.888 0.0391852 0.309632 0.00979148 0.0
6 24 311.586 233.138 0.0627979 -0.168782 -0.22286 0.0
6 25 311.862 232.384 0.0400113 -0.135213 -0.0809317 0.0
6 26 312.109 231.624 0.0511057 0.169212 -0.0951109 0.0
6 27 312.369 230.864 0.0467176 -0.203199 -0.161207 0.0
6 28 312.275 230.034 0.0436764 0.0661971 -0.153195 0.0
6 29 312.596 229.278 0.0581708 0.115907 -0.0682314 0.0
6 30 312.586 228.467 0.0394527 0.05257 -0.171135 0.0
6 31 312.762 227.683 0.067437 0.335019 0.0493382 0.0
6 32 312.668 226.869 0.0360251 -0.301387 -0.0303659 0.0
6 33 312.859 226.082 0.0737513 0.0481564 -0.0365519 0.0
6 34 312.851 225.278 0.0325984 0.179329 0.00146073 0.0
6 35 312.986 224.485 0.0719743 -0.331882 -0.0732891 0.0
6 36 312.888 223.678 0.0307992 0.231822 -0.0618119 0.0
6 37 312.934 222.882 0.0684345 -0.0273283 -0.147566 0.0
6 38 313.152 222.1 0.0251571 -0.08857 -0.103156 0.0
6 39 313.266 221.313 0.0573966 0.0949401 -0.19216 0.0
6 40 313.265 220.507 0.0182654 -0.0205861 -0.141086 0.0
6 41 313.209 219.708 0.0599785 -0.157589 -0.170907 0.0
6 42 313.372 218.91 0.0164134 0.288875 -0.0771376 0.0
6 43 313.37 218.113 0.060451 0.00207636 -0.10086 0.0
6 44 313.407 217.308 0.0153144 -0.0967545 -0.0790144 0.0
6 45 313.256 216.516 0.0591 0.320068 -0.0869918 0.0
6 46 313.143 215.728 0.0167482 0.369352 -0.167547 0.0
6 47 313.092 214.926 0.0645992 0.15899 0.0111379 0.0
6 48 312.751 214.175 0.0220576 -0.131288 -0.0647979 0.0
6 49 312.777 213.359 0.0733255 -0.136757 0.0457342 0.0
6 50 312.617 212.579 0.0273785 0.0517915 -0.0275374 0.0
6 51 312.505 211.787 0.0788248 0.0118483 -0.0252087 0.0
6 52 312.214 211.032 0.0308445 -0.450929 -0.0180406 0.0
6 53 312.029 210.26 0.0794964 -0.0487313 0.0105578 0.0
6 54 312.108 209.437 0.0306907 -0.202036 -0.0781849 0.0
6 55 311.746 208.686 0.0784293 0.0776362 -0.0220437 0.0
6 56 311.812 207.866 0.0335387 -0.0354367 -0.0199585 0.0
6 57 311.642 207.088 0.0820932 -0.218567 0.00225215 0.0
6 58 311.496 206.297 0.0345182 0.26827 -0.0728953 0.0
6 59 311.22 205.543 0.0849181 -0.0880014 -0.0448669 0.0
6 60 311.048 204.758 0.0330869 -0.277046 0.0876596 0.0
6 61 310.539 204.092 0.0834874 -0.154573 -0.104538 0.0
6 62 310.443 203.274 0.0305681 -0.131469 0.0296966 0.0
6 63 310.119 202.543 0.0837028 0.0758625 -0.149148 0.0
6 64 309.794 201.808 0.0284892 -0.00962742 -0.103182 0.0
6 65 309.363 201.129 0.0783056 -0.179054 0.0738427 0.0
6 66 308.995 200.419 0.0261346 0.0716803 -0.186221 0.0
6 67 308.633 199.705 0.0731942 -0.0801575 0.0144061 0.0
6 68 308.125 199.073 0.0240572 0.0553119 -0.0659656 0.0
6 69 307.901 198.281 0.0656742 -0.209363 -0.0327184 0.0
6 70 307.505 197.596 0.021016 0.181275 -0.0899933 0.0
6 71 307.09 196.897 0.0617371 -0.101382 -0.0429736 0.0
6 72 306.838 196.138 0.0164465 -0.157351 0.0585481 0.0
6 73 306.718 195.336 0.0564702 -0.135679 0.071155 0.0
6 74 306.595 194.557 0.0140258 0.226602 -0.0285968 0.0
6 75 306.821 193.733 0.051802 0.0921828 0.0545519 0.0
6 76 306.509 192.961 0.0107378 0.199304 -0.0101594 0.0
6 77 306.546 192.154 0.0455338 0.125277 0.0227465 0.0
6 78 306.417 191.365 0.00951581 0.056271 -0.0033776 0.0
6 79 306.458 190.557 0.0270226 0.210755 -0.0341672 0.0
6 80 306.476 189.767 0.000275244 -0.126036 -0.0807812 0.0
7 1 249.867 143.939 3.19939 -0.174395 -0.183041 0.0
7 2 249.118 143.604 3.19992 -0.12761 0.050432 0.0
7 3 248.315 143.548 3.19345 -0.138637 -0.0832536 0.0
7 4 247.538 143.35 3.19996 -0.236688 0.287513 0.0
7 5 246.732 143.322 3.19246 -0.108712 0.105301 0.0
7 6 245.973 143.009 3.1998 -0.161896 0.0305544 0.0
7 7 245.162 143.035 3.18414 -0.146108 -0.0255753 0.0
7 8 244.378 142.856 3.19498 -0.0761417 0.29279 0.0
7 9 243.577 142.828 3.17755 -0.0952125 -0.106435 0.0
7 10 242.777 142.875 3.19444 -0.057232 -0.0396403 0.0
7 11 241.986 143.01 3.18036 -0.0567954 -0.163535 0.0
7 12 241.187 143.055 3.19954 -0.0832624 0.102529 0.0
7 13 240.392 143.138 3.18663 -0.0258579 0.136634 0.0
7 14 239.59 143.076 3.19999 -0.163466 0.0337311 0.0
7 15 238.793 143.081 3.19093 -0.0706635 -0.189244 0.0
7 16 237.993 142.997 3.19989 -0.113152 0.109862 0.0
7 17 237.194 143.106 3.19462 -0.152829 -0.00435413 0.0
7 18 236.399 143.113 3.19994 -0.205034 -0.0571999 0.0
7 19 235.594 143.074 3.19474 -0.148157 -0.128723 0.0
7 20 234.804 143.246 3.19999 -0.179494 -0.0140791 0.0
7 21 233.996 143.182 3.18932 -0.082146 0.475377 0.0
7 22 233.209 143.351 3.19963 -0.16688 -0.281132 0.0
7 23 232.4 143.302 3.18139 -0.135301 -0.0863701 0.0
7 24 231.623 143.561 3.19908 -0.0506531 0.136506 0.0
7 25 230.814 143.519 3.1748 -0.0117723 0.134348 0.0
7 26 230.03 143.718 3.19909 -0.00873369 -0.00997567 0.0
7 27 229.235 143.798 3.17343 0.0769311 -0.0979177 0.0
7 28 228.433 143.834 3.19986 -0.0434611 0.138484 0.0
7 29 227.635 143.735 3.17221 0.0549593 -0.00772469 0.0
7 30 226.841 143.661 3.19915 -0.00893626 -0.398126 0.0
7 31 226.039 143.641 3.17078 -0.0435373 -0.211895 0.0
7 32 225.251 143.494 3.19991 -0.168523 0.0225943 0.0
7 33 224.45 143.445 3.17131 -0.0935947 0.160031 0.0
7 34 223.654 143.437 3.19968 -0.171049 -0.022018 0.0
7 35 222.85 143.455 3.17055 -0.102989 0.431454 0.0
7 36 222.057 143.343 3.19997 -0.126341 0.143136 0.0
7 37 221.274 143.164 3.16973 -0.0714068 0.0474759 0.0
7 38 220.481 143.07 3.19955 -0.117295 0.0315872 0.0
7 39 219.677 142.996 3.1697 0.0497912 -0.132429 0.0
7 40 218.881 143.188 3.19995 -0.0327587 0.37219 0.0
7 41 218.083 143.175 3.17049 -0.0666919 0.142095 0.0
7 42 217.279 143.182 3.19999 0.0162533 -0.0656618 0.0
7 43 216.482 143.183 3.17018 -0.133716 0.00898254 0.0
7 44 215.677 143.212 3.19995 -0.00608579 -0.209368 0.0
7 45 214.886 143.092 3.17083 -0.0823487 -0.0779527 0.0
7 46 214.087 143.024 3.19994 -0.129508 -0.101029 0.0
7 47 213.311 142.822 3.17136 -0.11815 -0.137054 0.0
7 48 212.554 142.575 3.2 -0.260902 0.12117 0.0
7 49 211.843 142.189 3.1681 -0.00317365 -0.273341 0.0
7 50 211.068 141.989 3.19991 -0.125358 -0.167644 0.0
7 51 210.301 141.762 3.16618 -0.113652 0.227874 0.0
7 52 209.591 141.377 3.1995 -0.0368305 0.0288418 0.0
7 53 208.825 141.146 3.16495 -0.108682 0.164308 0.0
7 54 208.129 140.737 3.19997 -0.165726 0.121199 0.0
7 55 207.38 140.455 3.16491 -0.122804 0.124364 0.0
7 56 206.662 140.101 3.19997 -0.0603209 0.0962165 0.0
7 57 205.962 139.713 3.16351 -0.141775 0.0954542 0.0
7 58 205.184 139.488 3.19987 -0.15275 0.155381 0.0
7 59 204.45 139.187 3.16517 -0.125553 -0.0699704 0.0
7 60 203.68 138.943 3.19979 -0.0956554 0.0601664 0.0
7 61 202.894 138.794 3.16398 -0.0535064 -0.0863664 0.0
7 62 202.159 138.453 3.19975 -0.0768312 -0.0410244 0.0
7 63 201.364 138.316 3.16411 -0.0412616 -0.0135219 0.0
7 64 200.59 138.143 3.2 -0.063868 -0.151862 0.0
7 65 199.794 137.999 3.16369 -0.119448 0.141657 0.0
7 66 198.991 138.042 3.1997 -0.0824558 0.284173 0.0
7 67 198.195 138.007 3.15972 -0.0771597 0.0286222 0.0
7 68 197.39 138.079 3.19965 -0.163612 0.113591 0.0
7 69 196.6 137.876 3.15637 -0.0220779 -0.0182289 0.0
7 70 195.809 137.822 3.19984 -0.149089 -0.0671083 0.0
7 71 195.003 137.785 3.15789 0.00214228 0.240769 0.0
7 72 194.207 137.867 3.2 -0.121476 -0.0461536 0.0
7 73 193.409 137.918 3.16192 0.0399559 0.268066 0.0
7 74 192.615 138.042 3.19959 -0.082344 0.268566 0.0
7 75 191.811 137.984 3.16633 -0.0189625 0.1354 0.0
7 76 191.015 138.117 3.19852 -0.127811 -0.0243745 0.0
7 77 190.211 138.042 3.17048 -0.132352 0.107029 0.0
7 78 189.411 138.143 3.19589 -0.0771167 -0.176818 0.0
7 79 188.637 138.336 3.1825 -0.273226 -0.12372 0.0
7 80 187.877 138.608 3.19939 0.0659869 0.158527 0.0
8 1 226.778 186.653 0.00191921 -0.0743741 0.23916 0.0