# 5352000
#nworms:800
#np:80
1 1 90.0731 133.972 1.89173 -0.118441 -0.0470621 0.0
1 2 90.5971 134.581 1.82754 0.00824183 -0.123825 0.0
1 3 91.0805 135.215 1.8213 0.0240595 -0.090527 0.0
1 4 91.7933 135.644 1.75375 0.0220856 -0.102865 0.0
1 5 92.2663 136.29 1.77354 0.271932 -0.248958 0.0
1 6 92.7703 136.915 1.70754 -0.0823424 0.060321 0.0
1 7 93.095 137.658 1.74105 -0.0715372 0.0603561 0.0
1 8 93.5146 138.332 1.67929 -0.301782 0.260652 0.0
1 9 93.9188 139.029 1.71961 0.362639 -0.150145 0.0
1 10 94.4714 139.615 1.66629 0.0396221 0.0898584 0.0
1 11 94.9334 140.267 1.71121 -0.0175771 0.190609 0.0
1 12 95.412 140.908 1.65589 0.0825943 0.104841 0.0
1 13 95.9275 141.523 1.7053 0.0109531 0.172919 0.0
1 14 96.5407 142.04 1.65364 0.0475144 0.153663 0.0
1 15 97.1303 142.581 1.70866 0.251312 -0.115901 0.0
1 16 97.8809 142.911 1.65938 0.0214929 0.186931 0.0
1 17 98.4206 143.528 1.7138 0.0452664 0.132682 0.0
1 18 99.1428 143.893 1.66508 0.0616877 0.106254 0.0
1 19 99.7985 144.341 1.71943 -0.0113532 0.170003 0.0
1 20 100.394 144.891 1.6713 -0.0494146 0.19962 0.0
1 21 101.08 145.298 1.73038 0.176013 -0.158738 0.0
1 22 101.783 145.686 1.68157 -0.0762851 0.195119 0.0
1 23 102.432 146.154 1.73972 -0.133201 0.209795 0.0
1 24 102.96 146.772 1.69037 0.169683 -0.146914 0.0
1 25 103.594 147.253 1.75039 0.170801 -0.207457 0.0
1 26 104.201 147.783 1.69948 0.0337249 -0.0624937 0.0
1 27 104.929 148.134 1.75612 0.0565959 -0.151155 0.0
1 28 105.521 148.691 1.70611 -0.0385275 -0.0381219 0.0
1 29 106.2 149.105 1.75891 -0.25304 0.171126 0.0
1 30 106.913 149.487 1.70997 -0.0618596 -0.0418331 0.0
1 31 107.534 149.989 1.76172 -0.0530681 -0.149495 0.0
1 32 108.081 150.583 1.71127 -0.363305 0.31065 0.0
1 33 108.726 151.06 1.75626 -0.189111 0.0355207 0.0
1 34 109.433 151.439 1.70772 -0.350108 0.359474 0.0
1 35 110.043 151.974 1.75186 0.0828238 -0.288051 0.0
1 36 110.777 152.305 1.70051 -0.0718243 0.0486641 0.0
1 37 111.493 152.661 1.7448 0.0257944 -0.0492077 0.0
1 38 112.193 153.045 1.6896 0.0685606 -0.0425938 0.0
1 39 112.906 153.42 1.73128 0.0124201 0.0907603 0.0
1 40 113.5 153.966 1.67713 0.357193 -0.315537 0.0
1 41 114.137 154.446 1.71597 0.0463648 0.115159 0.0
1 42 114.725 154.997 1.66524 0.121495 0.0453843 0.0
1 43 115.197 155.646 1.701 0.150598 0.050904 0.0
1 44 115.754 156.224 1.64722 0.119237 0.0735801 0.0
1 45 116.172 156.912 1.68533 0.0736562 0.145491 0.0
1 46 116.684 157.529 1.63438 -0.0395642 0.174694 0.0
1 47 117.095 158.217 1.67645 0.106006 0.116904 0.0
1 48 117.516 158.902 1.6268 0.222863 0.0184983 0.0
1 49 117.616 159.731 1.6722 0.122476 0.101229 0.0
1 50 117.987 160.435 1.62281 0.250203 -0.00335024 0.0
1 51 118.367 161.146 1.67222 0.0916089 0.0963626 0.0
1 52 118.747 161.842 1.62488 0.128744 0.0202339 0.0
1 53 119.187 162.523 1.67414 0.196108 0.0223138 0.0
1 54 119.462 163.276 1.62561 -0.0653762 0.060377 0.0
1 55 119.527 164.093 1.67924 -0.093148 0.0631029 0.0
1 56 119.835 164.834 1.63045 -0.540073 0.155532 0.0
1 57 120.184 165.555 1.6796 0.220231 -0.113592 0.0
1 58 120.522 166.282 1.62862 -0.208681 -0.00412154 0.0
1 59 121.031 166.914 1.67875 -0.00696771 -0.00405257 0.0
1 60 121.384 167.633 1.6299 0.000592594 -0.120875 0.0
1 61 121.775 168.332 1.67611 0.161358 -0.0988037 0.0
1 62 122.155 169.037 1.62651 -0.127828 -0.0192852 0.0
1 63 122.583 169.715 1.67014 -0.0837546 0.0473605 0.0
1 64 123.173 170.275 1.62505 0.101305 -0.156334 0.0
1 65 123.619 170.936 1.6693 -0.0178513 -0.000933787 0.0
1 66 124.011 171.638 1.6251 -0.0846227 -0.00106707 0.0
1 67 124.432 172.314 1.66996 0.0334663 -0.0407662 0.0
1 68 124.775 173.042 1.62493 0.11698 -0.0860168 0.0
1 69 125.306 173.65 1.67385 -0.23183 0.115629 0.0
1 70 125.653 174.377 1.63019 -0.376842 0.236901 0.0
1 71 126.163 174.996 1.67712 0.0281877 -0.0717588 0.0
1 72 126.589 175.671 1.6396 -0.397011 0.243096 0.0
1 73 126.974 176.368 1.68907 -0.191159 0.0458348 0.0
1 74 127.445 177.019 1.66288 0.148073 -0.104378 0.0
1 75 127.79 177.738 1.71755 0.104035 -0.145564 0.0
1 76 128.079 178.485 1.7101 0.0699388 -0.0749877 0.0
1 77 128.391 179.214 1.76701 0.0349809 -0.123828 0.0
1 78 128.492 180.027 1.78218 -0.0748474 -0.0412662 0.0
1 79 128.886 180.732 1.83726 0.288389 -0.222757 0.0
1 80 129.211 181.454 1.87038 -0.267414 0.0465721 0.0
2 1 175.983 224.609 1.1241 -0.0576578 0.0107248 0.0
2 2 176.261 225.373 1.13877 -0.233769 -0.0783874 0.0
2 3 176.819 225.972 1.14199 0.0972106 -0.0536878 0.0
2 4 177.104 226.729 1.15398 -0.181673 0.0133315 0.0
2 5 177.627 227.352 1.14968 0.285716 -0.151532 0.0
2 6 177.834 228.149 1.15684 -0.229077 0.127083 0.0
2 7 178.258 228.824 1.14368 -0.000342482 0.0306514 0.0
2 8 178.743 229.468 1.15121 0.180241 -0.106996 0.0
2 9 179.303 230.038 1.13441 0.131215 -0.0594261 0.0
2 10 179.84 230.631 1.14408 0.0137923 0.0706765 0.0
2 11 180.461 231.144 1.12788 -0.267494 0.348926 0.0
2 12 181.005 231.729 1.1414 -0.124917 0.231106 0.0
2 13 181.446 232.409 1.13569 0.107558 -0.000509265 0.0
2 14 182.166 232.834 1.16258 0.13551 -0.092186 0.0
2 15 182.597 233.521 1.15895 0.122037 -0.068251 0.0
2 16 183.148 234.098 1.14884 0.329883 -0.32685 0.0
2 17 183.622 234.753 1.13764 0.0944992 -0.127343 0.0
2 18 183.967 235.475 1.14286 -0.259141 -0.00668024 0.0
2 19 184.211 236.243 1.1366 -0.0443904 -0.0941799 0.0
2 20 184.59 236.947 1.13934 -0.35862 0.088545 0.0
2 21 184.931 237.672 1.13378 -0.0901412 -0.0235773 0.0
2 22 185.259 238.4 1.12696 -0.0889632 0.0613299 0.0
2 23 185.574 239.138 1.1255 -0.0163413 -0.00109768 0.0
2 24 185.962 239.837 1.11843 0.0911116 0.0429117 0.0
2 25 186.302 240.561 1.12584 0.148618 -0.0240943 0.0
2 26 186.807 241.194 1.11394 0.190157 0.0081178 0.0
2 27 187.039 241.98 1.12888 0.17715 -0.0292178 0.0
2 28 187.526 242.622 1.11535 0.267523 -0.119665 0.0
2 29 187.874 243.342 1.13334 -0.0792166 0.0892153 0.0
2 30 188.395 243.964 1.11462 -0.113137 0.0340283 0.0
2 31 188.747 244.682 1.13439 -0.111114 0.0545862 0.0
2 32 189.11 245.395 1.11279 -0.184427 0.00839732 0.0
2 33 189.502 246.095 1.13672 0.0346181 -0.0556456 0.0
2 34 190.019 246.711 1.11699 -0.145233 -0.00995996 0.0
2 35 190.556 247.302 1.1353 -0.122229 0.154539 0.0
2 36 191.175 247.821 1.11429 0.211906 -0.296234 0.0
2 37 191.904 248.168 1.12735 -0.0392572 0.232637 0.0
2 38 192.616 248.523 1.11177 0.068164 0.195135 0.0
2 39 193.335 248.881 1.10955 0.108802 0.160669 0.0
2 40 194.007 249.318 1.12333 0.158654 0.217132 0.0
2 41 194.633 249.814 1.1254 0.309402 -0.0495897 0.0
2 42 195.24 250.345 1.12195 0.185517 0.213644 0.0
2 43 195.602 251.084 1.12232 0.462616 -0.170231 0.0
2 44 196.187 251.639 1.11466 -0.06143 0.293509 0.0
2 45 196.53 252.382 1.12098 -0.221736 0.293743 0.0
2 46 197.054 252.987 1.1145 0.12165 0.0415474 0.0
2 47 197.502 253.652 1.132 0.125079 0.00549988 0.0
2 48 197.916 254.335 1.12207 0.0103023 0.0423355 0.0
2 49 198.312 255.034 1.14503 -0.00770047 0.0291382 0.0
2 50 198.576 255.793 1.12671 -0.211983 0.114282 0.0
2 51 198.757 256.574 1.15614 -0.0157343 -0.0113148 0.0
2 52 199.228 257.256 1.12914 0.396875 -0.140728 0.0
2 53 199.477 258.007 1.16313 -0.54191 0.187985 0.0
2 54 199.603 258.814 1.12507 -0.268616 0.0882079 0.0
2 55 199.915 259.55 1.16455 0.170475 -0.0753753 0.0
2 56 200.266 260.271 1.13316 -0.0221175 0.0558772 0.0
2 57 200.795 260.891 1.1749 -0.00432021 0.0212769 0.0
2 58 201.009 261.687 1.13744 0.0227624 0.0810036 0.0
2 59 201.399 262.376 1.17959 -0.333312 0.200719 0.0
2 60 201.746 263.105 1.13434 0.0903889 0.062739 0.0
2 61 202.203 263.764 1.18008 -0.0224159 0.0982369 0.0
2 62 202.757 264.344 1.13377 0.114337 0.0150972 0.0
2 63 203.192 265.025 1.17531 -0.265912 0.354681 0.0
2 64 203.768 265.581 1.13503 0.0232725 0.0912163 0.0
2 65 204.293 266.19 1.18188 -0.0976645 0.226754 0.0
2 66 204.944 266.668 1.14483 0.338507 -0.242017 0.0
2 67 205.572 267.155 1.18969 0.039057 0.0428639 0.0
2 68 206.123 267.752 1.15894 0.0919451 0.0139238 0.0
2 69 206.81 268.177 1.2044 0.150556 -0.140875 0.0
2 70 207.558 268.471 1.18252 -0.0838479 0.292223 0.0
2 71 208.355 268.614 1.23059 0.0640861 0.0570456 0.0
2 72 209.07 268.987 1.21925 -0.111285 0.294102 0.0
2 73 209.872 269.131 1.24607 0.0118047 -0.0839503 0.0
2 74 210.581 269.505 1.25278 -0.0274362 -0.052747 0.0
2 75 211.32 269.822 1.27608 -0.103702 -0.112911 0.0
2 76 212.087 270.041 1.27918 -0.181594 0.224015 0.0
2 77 212.853 270.293 1.28911 -0.185256 -0.192888 0.0
2 78 213.642 270.414 1.29145 -0.159775 -0.181841 0.0
2 79 214.39 270.742 1.29941 -0.198912 -0.332984 0.0
2 80 215.197 270.794 1.30326 -0.32325 0.178515 0.0
3 1 147.474 203.703 3.19996 0.0464042 -0.118865 0.0
3 2 148.049 204.269 3.1762 0.331529 -0.291072 0.0
3 3 148.552 204.885 3.19577 -0.113039 0.0585091 0.0
3 4 149.116 205.464 3.15648 -0.0555646 -0.012893 0.0
3 5 149.869 205.794 3.19694 -0.0643552 0.0477592 0.0
3 6 150.396 206.425 3.1467 -0.0882317 -0.15728 0.0
3 7 151.081 206.84 3.19471 -0.254604 0.374888 0.0
3 8 151.836 207.121 3.1376 -0.163252 -0.104822 0.0
3 9 152.524 207.536 3.18959 -0.0401587 0.158867 0.0
3 10 153.345 207.643 3.12526 -0.19902 0.0798085 0.0
3 11 154.059 207.999 3.17458 0.0182615 0.11884 0.0
3 12 154.753 208.403 3.1134 0.0631346 -0.233467 0.0
3 13 155.395 208.883 3.15957 -0.0268158 0.275874 0.0
3 14 156.075 209.303 3.09958 0.0183506 0.0713202 0.0
3 15 156.686 209.829 3.14089 0.245103 -0.0663273 0.0
3 16 157.529 209.97 3.08021 0.146723 0.0633956 0.0
3 17 158.08 210.613 3.12417 0.206958 -0.0358016 0.0
3 18 158.813 210.924 3.06361 0.105393 0.257232 0.0
3 19 159.537 211.278 3.10818 0.216986 -0.316034 0.0
3 20 160.209 211.706 3.06287 0.0232567 0.343713 0.0
3 21 160.901 212.117 3.09132 -0.210113 0.140669 0.0
3 22 161.471 212.69 3.03659 0.286828 -0.180476 0.0
3 23 162.13 213.145 3.07197 0.0446459 -0.219947 0.0
3 24 162.831 213.534 3.02255 0.16639 -0.0796184 0.0
3 25 163.49 213.993 3.06452 -0.0177289 -0.0871296 0.0
3 26 164.071 214.55 3.01338 -0.191093 0.285497 0.0
3 27 164.555 215.192 3.05831 0.378747 -0.427515 0.0
3 28 165.015 215.843 3.00739 -0.235362 0.302431 0.0
3 29 165.387 216.561 3.05311 0.190425 -0.278425 0.0
3 30 165.955 217.138 3.00469 0.100981 -0.0625034 0.0
3 31 166.445 217.765 3.04761 -0.16484 0.0196861 0.0
3 32 166.925 218.409 3.00717 -0.260516 0.129655 0.0
3 33 167.434 219.026 3.04257 -0.246088 0.00211783 0.0
3 34 168.102 219.492 3.01351 -0.124192 -0.0568973 0.0
3 35 168.612 220.112 3.03801 -0.141953 -0.111811 0.0
3 36 169.165 220.682 3.02591 -0.189943 0.0206006 0.0
3 37 169.744 221.245 3.03401 -0.0926828 -0.11138 0.0
3 38 170.239 221.867 3.04142 0.063793 -0.1033 0.0
3 39 170.571 222.617 3.03126 0.0804307 -0.185529 0.0
3 40 171.179 223.164 3.05731 0.022253 0.0233359 0.0
3 41 171.599 223.843 3.03003 0.11992 -0.164327 0.0
3 42 172.084 224.488 3.06973 0.0765647 -0.0497149 0.0
3 43 172.331 225.268 3.02588 0.423727 -0.256114 0.0
3 44 172.794 225.925 3.07139 0.129313 -0.127763 0.0
3 45 173.215 226.604 3.01965 -0.205385 0.215028 0.0
3 46 173.705 227.243 3.07143 -0.13717 0.0763443 0.0
3 47 174.084 227.952 3.0171 0.0237699 0.0155747 0.0
3 48 174.37 228.705 3.07473 -0.169585 0.0476997 0.0
3 49 174.524 229.496 3.01714 -0.0510557 -0.0300712 0.0
3 50 174.599 230.293 3.06976 -0.57009 0.0148873 0.0
3 51 174.667 231.093 3.01681 0.348733 -0.0733999 0.0
3 52 174.884 231.87 3.06788 0.283485 -0.122886 0.0
3 53 175.012 232.658 3.02208 0.0826696 -0.0185822 0.0
3 54 175.259 233.43 3.06991 -0.278592 0.100249 0.0
3 55 175.682 234.111 3.02534 -0.17123 0.104641 0.0
3 56 176.016 234.842 3.0771 0.0575673 0.00907041 0.0
3 57 176.593 235.424 3.02923 -0.133354 0.077869 0.0
3 58 177.005 236.099 3.0862 0.489331 -0.265645 0.0
3 59 177.58 236.683 3.03735 0.235832 -0.139185 0.0
3 60 177.927 237.407 3.09577 0.186892 -0.0677931 0.0
3 61 178.271 238.13 3.04891 -0.102578 0.0495477 0.0
3 62 178.68 238.82 3.10682 0.232826 -0.10073 0.0
3 63 179.319 239.342 3.06387 -0.0145798 0.0493428 0.0
3 64 179.743 240.019 3.12513 0.181344 -0.0846492 0.0
3 65 180.116 240.729 3.08119 0.266369 -0.0645986 0.0
3 66 180.599 241.37 3.14367 0.180035 -0.0473954 0.0
3 67 180.909 242.117 3.10124 0.224125 -0.0404229 0.0
3 68 181.496 242.696 3.15895 0.1315 -0.00681844 0.0
3 69 181.806 243.441 3.11455 0.271014 -0.0751733 0.0
3 70 182.199 244.138 3.17114 -0.46715 0.206369 0.0
3 71 182.346 244.947 3.12784 0.304109 -0.104958 0.0
3 72 182.648 245.68 3.18048 0.356965 -0.0635296 0.0
3 73 183.01 246.404 3.14216 -0.0640904 0.0287783 0.0
3 74 183.219 247.178 3.18817 0.210771 -0.00805339 0.0
3 75 183.543 247.914 3.1581 -0.445879 0.152789 0.0
3 76 183.753 248.688 3.19514 -0.144453 0.137579 0.0
3 77 184.138 249.399 3.16839 0.28876 -0.168572 0.0
3 78 184.147 250.242 3.19621 -0.404938 0.232194 0.0
3 79 184.611 250.931 3.18062 0.0338215 -0.11843 0.0
3 80 184.917 251.65 3.19975 0.476065 -0.135547 0.0
4 1 193.077 42.5244 0.0311076 -0.273613 0.230506 0.0
4 2 193.877 42.5051 0.0128973 0.145386 -0.0190134 0.0
4 3 194.669 42.6109 0.033203 -0.179975 0.157878 0.0
4 4 195.462 42.7017 0.00326363 0.0115296 0.244997 0.0
4 5 196.262 42.7344 0.0437294 -0.018432 0.190983 0.0
4 6 197.057 42.7244 0.00778181 -0.115423 0.365002 0.0
4 7 197.821 43.1041 0.0542257 0.0580496 0.06918 0.0
4 8 198.644 42.922 0.00876249 0.0116063 -0.194856 0.0
4 9 199.416 43.1052 0.0575636 0.0494425 0.123852 0.0
4 10 200.239 43.0774 0.0118954 -0.0201409 0.0636976 0.0
4 11 200.948 43.5487 0.0573909 0.00827604 -0.0351165 0.0
4 12 201.783 43.5061 0.012081 -0.199697 0.273807 0.0
4 13 202.503 43.9007 0.0583009 0.0906283 0.0538374 0.0
4 14 203.325 43.9382 0.0120497 -0.257547 0.351628 0.0
4 15 204.074 44.2042 0.0572112 0.0985304 -0.293296 0.0
4 16 204.805 44.5492 0.0103946 -0.108547 0.12512 0.0
4 17 205.526 44.8698 0.0608556 -0.0638517 -0.0435898 0.0
4 18 206.35 44.9705 0.00803768 0.0117211 -0.292356 0.0
4 19 207.043 45.3788 0.0576201 -0.100765 0.0702123 0.0
4 20 207.715 45.8081 0.00443442 -0.221484 0.129248 0.0
4 21 208.321 46.3408 0.0489856 -0.301479 0.428846 0.0
4 22 209.004 46.7529 0.0028594 -0.0866803 0.219108 0.0
4 23 209.694 47.1671 0.0388671 -0.25813 0.391177 0.0
4 24 210.465 47.4012 0.00542076 -0.00409384 -0.127746 0.0
4 25 211.211 47.6731 0.0302006 0.0501174 -0.351203 0.0
4 26 211.937 48.0234 0.0127026 -0.0502652 -0.196934 0.0
4 27 212.634 48.4012 0.0211805 -0.164803 0.127328 0.0
4 28 213.328 48.8133 0.0230987 0.147916 -0.29301 0.0
4 29 213.92 49.3575 0.0109425 0.158221 -0.118253 0.0
4 30 214.483 49.9231 0.0341108 0.0395226 -0.0243874 0.0
4 31 214.98 50.5605 0.00418671 -0.0877635 0.147538 0.0
4 32 215.605 51.0651 0.0428902 0.27474 -0.146667 0.0
4 33 216.299 51.4717 0.0 -0.0811056 0.0383317 0.0
4 34 217.014 51.8293 0.0496038 -0.0436917 0.294722 0.0
4 35 217.681 52.2757 0.00225421 -0.209136 0.192102 0.0
4 36 218.349 52.7092 0.0605233 0.126038 -0.0278776 0.0
4 37 218.924 53.2892 0.00752562 -0.0352168 -0.0506727 0.0
4 38 219.627 53.6675 0.0587749 -0.00327575 0.13182 0.0
4 39 220.364 53.9991 0.00581875 0.0465115 -0.0229425 0.0
4 40 221.007 54.4749 0.0586383 0.139985 -0.109296 0.0
4 41 221.647 54.9626 0.00822583 0.269662 -0.163282 0.0
4 42 222.338 55.3599 0.058264 0.0825359 0.251788 0.0
4 43 223.028 55.7782 0.00730791 -0.362702 0.390009 0.0
4 44 223.575 56.3778 0.0546646 0.31686 -0.0179232 0.0
4 45 223.979 57.0722 0.00628025 0.037654 -0.183031 0.0
4 46 224.487 57.6876 0.0584649 -0.0133878 0.231133 0.0
4 47 224.773 58.4626 0.00760374 0.0747886 -0.082066 0.0
4 48 225.319 59.0515 0.0586574 0.0677735 0.0888714 0.0
4 49 225.795 59.6987 0.00140836 0.23502 -0.345971 0.0
4 50 226.418 60.2154 0.0581713 -0.0142578 0.123572 0.0
4 51 226.996 60.7578 0.00245888 -0.00747078 0.0494044 0.0
4 52 227.696 61.1829 0.060287 -0.0245636 -0.0417211 0.0
4 53 228.173 61.8434 0.00702649 -0.0884923 0.201845 0.0
4 54 228.73 62.4063 0.0615214 -0.298119 0.25433 0.0
4 55 229.411 62.8629 0.00673331 0.232945 -0.103472 0.0
4 56 229.852 63.5462 0.0607522 -0.0885502 0.0592171 0.0
4 57 230.397 64.1315 0.00759202 0.0558124 -0.0470954 0.0
4 58 230.83 64.808 0.0562396 -0.00625533 0.0765905 0.0
4 59 231.235 65.5034 0.00643989 -0.384695 0.256445 0.0
4 60 231.437 66.2876 0.0557326 -0.00294001 0.145629 0.0
4 61 231.715 67.0345 0.00601479 -0.219151 0.298979 0.0
4 62 232.027 67.7747 0.0593838 -0.29553 0.266992 0.0
4 63 232.362 68.5002 0.00647981 -0.00579881 0.237831 0.0
4 64 232.779 69.1876 0.0605741 0.069588 0.150894 0.0
4 65 233.183 69.8775 0.00408802 0.280073 0.0255342 0.0
4 66 233.724 70.4793 0.0604656 -0.00156126 0.123568 0.0
4 67 234.154 71.1532 0.00374079 -0.105883 0.137693 0.0
4 68 234.676 71.7641 0.0646945 -0.0992749 -0.0163606 0.0
4 69 235.274 72.3019 0.00653861 -0.094408 -0.143754 0.0
4 70 235.837 72.8622 0.0629139 0.216964 -0.220523 0.0
4 71 236.21 73.6013 0.00599899 -0.124549 -0.0813115 0.0
4 72 236.781 74.1551 0.0599775 -0.140634 0.041396 0.0
4 73 237.276 74.793 0.0099867 -0.111061 0.053911 0.0
4 74 237.784 75.4012 0.0547948 -0.213355 0.049802 0.0
4 75 238.295 76.0277 0.00747549 -0.0336696 -0.0209377 0.0
4 76 238.96 76.4885 0.0428587 -0.0483688 -0.149881 0.0
4 77 239.524 77.0561 0.00229084 0.188108 -0.200345 0.0
4 78 239.924 77.7678 0.0274043 0.129664 -0.262214 0.0
4 79 240.418 78.3831 0.00384805 0.0281413 0.0957884 0.0
4 80 241.077 78.8795 0.0195514 0.0513057 -0.0794244 0.0
5 1 127.896 182.838 3.03469 0.239969 -0.148894 0.0
5 2 128.741 182.898 3.0133 0.200801 -0.160448 0.0
5 3 129.424 183.307 3.03822 0.11292 0.241452 0.0
5 4 130.175 183.615 3.00586 0.172166 -0.154341 0.0
5 5 130.762 184.183 3.04618 0.347249 -0.113912 0.0
5 6 131.465 184.567 3.0065 0.149394 -0.151937 0.0
5 7 132.118 185.031 3.04922 0.116614 0.205217 0.0
5 8 132.787 185.471 3.00715 0.0406646 -0.00401933 0.0
5 9 133.423 185.956 3.0497 -0.0046701 0.219854 0.0
5 10 134.232 186.16 3.00223 0.075158 -0.0458114 0.0
5 11 134.807 186.752 3.04894 0.0499931 -0.0242349 0.0
5 12 135.537 187.086 2.99199 -0.188858 0.298525 0.0
5 13 136.168 187.582 3.04291 -0.107327 0.256881 0.0
5 14 136.876 187.961 2.98086 -0.0967584 0.157554 0.0
5 15 137.502 188.465 3.03836 0.0162411 0.0851117 0.0
5 16 138.007 189.092 2.98213 -0.302861 0.406727 0.0
5 17 138.51 189.709 3.03611 -0.225955 0.316894 0.0
5 18 139.024 190.323 2.98379 -0.0208896 0.148132 0.0
5 19 139.503 190.964 3.03716 0.178809 0.0238666 0.0
5 20 140.161 191.45 2.98694 -0.0249763 0.15012 0.0
5 21 140.666 192.066 3.0381 0.0855215 0.114891 0.0
5 22 141.07 192.771 2.98611 0.051874 0.108152 0.0
5 23 141.609 193.362 3.03813 -0.053501 0.161194 0.0
5 24 142.204 193.903 2.98579 0.145786 0.0259368 0.0
5 25 142.708 194.528 3.04138 -0.204358 0.252556 0.0
5 26 143.166 195.182 2.98779 -0.0312174 0.18477 0.0
5 27 143.698 195.792 3.04488 0.249749 -0.160723 0.0
5 28 144.324 196.289 2.98942 0.149297 0.00377325 0.0
5 29 145.052 196.655 3.04102 0.171178 -0.0612324 0.0
5 30 145.624 197.22 2.9872 -0.172667 0.38311 0.0
5 31 146.274 197.695 3.04179 -0.3266 0.492653 0.0
5 32 146.734 198.37 2.98765 0.442097 -0.264911 0.0
5 33 147.385 198.849 3.04002 0.0440531 0.0534849 0.0
5 34 147.818 199.543 2.98714 0.137602 -0.0199729 0.0
5 35 148.471 200.024 3.03406 0.279923 -0.228349 0.0
5 36 148.994 200.626 2.98668 0.193922 -0.134445 0.0
5 37 149.544 201.209 3.02704 -0.0478547 -0.00353365 0.0
5 38 150.206 201.669 2.98062 -0.179229 0.188314 0.0
5 39 150.721 202.292 3.02412 -0.0623074 -0.0736772 0.0
5 40 151.302 202.828 2.97918 0.0628579 -0.136454 0.0
5 41 151.628 203.614 3.02253 0.0865343 -0.213692 0.0
5 42 152.308 204.068 2.97336 -0.165183 0.0370137 0.0
5 43 152.875 204.624 3.02277 -0.151763 0.0317663 0.0
5 44 153.428 205.204 2.9747 0.0678392 -0.164753 0.0
5 45 154.026 205.739 3.0248 -0.124866 0.0265597 0.0
5 46 154.527 206.364 2.98161 0.12343 -0.261986 0.0
5 47 155.118 206.911 3.03384 0.000890378 -0.148165 0.0
5 48 155.777 207.365 2.99423 0.0185516 -0.0877409 0.0
5 49 156.51 207.702 3.04547 -0.217385 0.0846754 0.0
5 50 157.114 208.241 3.00252 -0.0900605 0.123303 0.0
5 51 157.796 208.655 3.058 0.0212026 -0.257347 0.0
5 52 158.554 208.941 3.02063 -0.146617 0.168419 0.0
5 53 159.215 209.393 3.07818 -0.243918 0.313518 0.0
5 54 159.922 209.77 3.04329 0.276435 -0.525343 0.0
5 55 160.589 210.207 3.09551 0.266584 -0.394281 0.0
5 56 161.334 210.523 3.04964 0.210222 -0.28685 0.0
5 57 161.977 211.0 3.10018 0.222276 -0.189495 0.0
5 58 162.602 211.502 3.05377 -0.0311516 0.111067 0.0
5 59 163.241 211.979 3.10224 0.00797428 0.151357 0.0
5 60 163.916 212.415 3.06003 0.166835 -0.113061 0.0
5 61 164.572 212.867 3.10998 0.000603386 0.149107 0.0
5 62 165.192 213.379 3.07173 -0.00630293 0.148049 0.0
5 63 165.924 213.724 3.12327 0.0952146 -0.0405697 0.0
5 64 166.58 214.178 3.08694 0.293612 -0.373061 0.0
5 65 167.085 214.828 3.13673 0.219308 -0.225991 0.0
5 66 167.844 215.162 3.09688 -0.005231 0.000536853 0.0
5 67 168.413 215.718 3.14826 0.0526536 -0.0154877 0.0
5 68 169.036 216.234 3.10159 -0.0605541 0.0576746 0.0
5 69 169.531 216.859 3.15513 -0.0400997 0.0216747 0.0
5 70 169.984 217.527 3.10258 -0.00929232 -0.0356579 0.0
5 71 170.571 218.073 3.1642 -0.0233884 -0.0427114 0.0
5 72 171.142 218.637 3.118 -0.107761 0.0146937 0.0
5 73 171.601 219.295 3.17757 -0.225263 0.122433 0.0
5 74 172.092 219.928 3.1357 -0.046009 -0.0365251 0.0
5 75 172.636 220.513 3.19372 -0.0300745 0.0408408 0.0
5 76 173.188 221.098 3.15612 -0.0451904 -0.0362202 0.0
5 77 173.643 221.756 3.19838 -0.00261231 0.0815096 0.0
5 78 174.108 222.409 3.17367 0.0443096 -0.077322 0.0
5 79 174.664 222.986 3.19945 0.0870014 0.050091 0.0
5 80 175.11 223.659 3.18556 0.108495 -0.121003 0.0
6 1 117.245 135.406 3.19903 0.0586962 0.126537 0.0
6 2 117.458 136.178 3.19806 -0.231028 0.0805624 0.0
6 3 117.708 136.937 3.14661 -0.03062 0.169141 0.0
6 4 117.872 137.723 3.15548 -0.00185796 0.0463658 0.0
6 5 118.163 138.471 3.09494 -0.280042 0.239775 0.0
6 6 118.389 139.235 3.10748 -0.353823 0.173291 0.0
6 7 118.638 140.001 3.04902 -0.358976 0.298059 0.0
6 8 119.072 140.688 3.06361 0.484348 -0.223057 0.0
6 9 119.676 141.221 2.99758 -0.212419 0.196402 0.0
6 10 120.269 141.758 3.02214 0.101309 0.153982 0.0
6 11 120.826 142.328 2.95394 -0.144159 0.146634 0.0
6 12 121.304 142.986 2.99197 -0.125946 0.33427 0.0
6 13 122.019 143.391 2.92588 -0.223607 0.216629 0.0
6 14 122.634 143.885 2.97169 0.054599 0.0304868 0.0
6 15 123.143 144.531 2.90673 0.276287 -0.344517 0.0
6 16 123.806 144.98 2.95805 0.000840691 0.0577011 0.0
6 17 124.492 145.393 2.90361 0.156126 -0.258147 0.0
6 18 125.257 145.665 2.95115 0.153672 -0.292307 0.0
6 19 125.908 146.14 2.89042 -0.0359511 -0.0434695 0.0
6 20 126.554 146.609 2.94357 -0.188133 0.124296 0.0
6 21 127.331 146.873 2.8825 -0.0525055 -0.154849 0.0
6 22 127.973 147.352 2.942 -0.376855 0.378047 0.0
6 23 128.668 147.753 2.88016 -0.19841 -0.0125512 0.0
6 24 129.327 148.205 2.94232 -0.191912 0.023614 0.0
6 25 129.995 148.646 2.88185 -0.249245 0.046513 0.0
6 26 130.637 149.117 2.93661 -0.302816 0.183488 0.0
6 27 131.286 149.592 2.87942 -0.0109918 -0.255394 0.0
6 28 131.975 149.985 2.92763 -0.330513 0.315213 0.0
6 29 132.571 150.549 2.87093 -0.0158419 -0.204466 0.0
6 30 133.365 150.766 2.92015 -0.162122 0.192422 0.0
6 31 134.052 151.159 2.86414 -0.15326 0.196322 0.0
6 32 134.776 151.513 2.91544 -0.0193143 0.0965428 0.0
6 33 135.412 152.002 2.86729 -0.0945893 0.181196 0.0
6 34 136.134 152.355 2.92046 0.215428 -0.184293 0.0
6 35 136.664 152.998 2.88223 -0.115738 0.277514 0.0
6 36 137.371 153.372 2.94447 -0.102946 0.254129 0.0
6 37 138.072 153.762 2.91222 0.00355319 0.143399 0.0
6 38 138.753 154.18 2.98589 -0.00200011 0.0795583 0.0
6 39 139.422 154.622 2.94916 0.152604 -0.072019 0.0
6 40 140.185 154.896 3.02457 -0.0709037 0.168052 0.0
6 41 140.826 155.393 2.98701 0.147566 -0.0906275 0.0
6 42 141.558 155.721 3.05791 0.0354592 -0.0696606 0.0
6 43 142.221 156.183 3.0208 0.0474088 0.042789 0.0
6 44 142.961 156.494 3.08436 0.0342431 -0.141484 0.0
6 45 143.676 156.856 3.03799 -0.0116777 0.110603 0.0
6 46 144.436 157.121 3.0967 -0.0805154 0.0943858 0.0
6 47 145.169 157.439 3.05002 -0.165992 0.447156 0.0
6 48 145.956 157.632 3.09772 -0.194285 0.455784 0.0
6 49 146.659 158.029 3.05632 -0.0457848 0.165421 0.0
6 50 147.401 158.33 3.09483 0.0805142 -0.0954938 0.0
6 51 148.143 158.631 3.05445 0.0609559 -0.027149 0.0
6 52 148.932 158.814 3.09358 -0.0318533 0.307056 0.0
6 53 149.574 159.351 3.04481 0.102942 -0.0376706 0.0
6 54 150.326 159.611 3.08711 0.0715525 0.187119 0.0
6 55 151.108 159.81 3.0391 0.194627 -0.32681 0.0
6 56 151.893 159.955 3.08291 0.16059 -0.101282 0.0
6 57 152.695 160.009 3.03731 0.098986 0.350765 0.0
6 58 153.495 159.986 3.0848 0.148912 0.193708 0.0
6 59 154.289 160.141 3.03361 0.149979 -0.143945 0.0
6 60 155.089 160.144 3.0811 0.139373 0.0349512 0.0
6 61 155.885 160.232 3.02982 0.163756 -0.195511 0.0
6 62 156.674 160.372 3.08292 0.0628655 0.224247 0.0
6 63 157.427 160.659 3.04117 0.169488 -0.307239 0.0
6 64 158.194 160.873 3.0939 0.156568 -0.248839 0.0
6 65 158.943 161.163 3.05444 -0.0461605 0.208867 0.0
6 66 159.704 161.401 3.11114 -0.0824617 0.237937 0.0
6 67 160.46 161.667 3.08086 -0.0354699 -0.0324108 0.0
6 68 161.2 161.967 3.13738 0.0208342 -0.214963 0.0
6 69 161.931 162.293 3.10515 -0.12836 0.0658187 0.0
6 70 162.691 162.549 3.16006 -0.122626 0.0271617 0.0
6 71 163.427 162.869 3.12606 -0.251078 0.357912 0.0
6 72 163.993 163.482 3.17914 0.133179 -0.375419 0.0
6 73 164.71 163.826 3.13478 -0.212064 0.325942 0.0
6 74 165.389 164.268 3.1899 -0.260522 0.391144 0.0
6 75 166.206 164.39 3.14178 0.00829961 -0.180076 0.0
6 76 166.883 164.844 3.19202 -0.00692706 -0.163888 0.0
6 77 167.661 165.046 3.15016 0.0026234 -0.0948812 0.0
6 78 168.339 165.514 3.19075 0.0750526 -0.31057 0.0
6 79 169.158 165.61 3.17132 0.0858961 -0.206409 0.0
6 80 169.923 165.774 3.2 -0.0011252 0.141819 0.0
7 1 86.1388 222.96 3.19938 0.202541 -0.209322 0.0
7 2 86.0552 222.164 3.16832 0.328988 -0.151083 0.0
7 3 85.6883 221.427 3.19219 -0.153515 -0.0720161 0.0
7 4 85.6184 220.625 3.15259 -0.379228 -0.0805266 0.0
7 5 85.2666 219.885 3.19693 -0.0984612 -0.0751932 0.0
7 6 85.3398 219.051 3.14653 -0.282543 -0.117574 0.0
7 7 84.9893 218.307 3.19817 0.282017 -0.0664735 0.0
7 8 84.9096 217.508 3.14341 -0.250932 -0.0912618 0.0
7 9 84.7131 216.73 3.19521 -0.296193 0.214166 0.0
7 10 84.6228 215.93 3.14057 0.0685355 -0.0645754 0.0
7 11 84.3243 215.181 3.19701 0.0705507 0.140819 0.0
7 12 84.137 214.406 3.13885 0.107416 -0.016943 0.0
7 13 83.8773 213.65 3.19833 -0.221873 0.226507 0.0
7 14 83.7127 212.863 3.13806 0.190832 0.044174 0.0
7 15 83.4787 212.099 3.19882 0.138048 0.138851 0.0
7 16 83.1006 211.385 3.13909 -0.0926531 0.0503361 0.0
7 17 82.7314 210.681 3.19566 -0.211964 0.18488 0.0
7 18 82.696 209.84 3.13659 -0.0552665 0.0494808 0.0
7 19 82.315 209.133 3.19444 -0.354968 0.167537 0.0
7 20 81.9655 208.416 3.13788 0.0465891 -0.086264 0.0
7 21 81.8883 207.59 3.19455 -0.118208 -0.0220227 0.0
7 22 81.5121 206.881 3.14132 -0.113163 0.0674236 0.0
7 23 81.2237 206.133 3.197 0.0503047 -0.220558 0.0
7 24 80.8762 205.412 3.14494 -0.143555 -0.0582845 0.0
7 25 80.3906 204.766 3.19786 -0.0637639 0.026066 0.0
7 26 80.0712 204.027 3.14196 -0.236186 0.119907 0.0
7 27 79.5846 203.382 3.19304 -0.045927 0.0781419 0.0
7 28 79.4157 202.566 3.14118 0.343311 -0.234853 0.0
7 29 78.9278 201.923 3.19208 -0.510561 0.164707 0.0
7 30 78.5787 201.201 3.14106 -0.195234 -0.143776 0.0
7 31 78.1934 200.505 3.19195 -0.226722 0.0300311 0.0
7 32 77.905 199.749 3.14006 -0.271174 0.140277 0.0
7 33 77.4486 199.089 3.19282 -0.0366149 -0.126324 0.0
7 34 76.927 198.478 3.14219 0.0249677 -0.127818 0.0
7 35 76.5439 197.769 3.19491 -0.125127 -0.0628574 0.0
7 36 76.1151 197.1 3.13981 -0.169862 -0.0275527 0.0
7 37 75.6127 196.467 3.19636 -0.0970284 -0.127784 0.0
7 38 75.1746 195.805 3.14029 -0.494436 0.0168337 0.0
7 39 74.8723 195.043 3.19495 0.096596 -0.0932381 0.0
7 40 74.3515 194.433 3.13894 -0.477348 0.166126 0.0
7 41 73.8612 193.801 3.19618 -0.18462 0.083308 0.0
7 42 73.4066 193.137 3.14208 -0.00192857 -0.0799679 0.0
7 43 72.9172 192.509 3.19619 0.235078 -0.300167 0.0
7 44 72.5239 191.8 3.13708 0.0197342 -0.0903946 0.0
7 45 71.9122 191.264 3.19356 0.083256 -0.222841 0.0
7 46 71.4463 190.611 3.13629 0.300676 -0.380714 0.0
7 47 71.099 189.885 3.19434 0.0462703 -0.27696 0.0
7 48 70.6506 189.22 3.13799 0.379048 -0.397712 0.0
7 49 70.1843 188.569 3.19703 -0.117745 -0.113296 0.0
7 50 69.8593 187.83 3.13804 0.131008 -0.221676 0.0
7 51 69.5787 187.085 3.19628 -0.165269 -0.145699 0.0
7 52 69.3908 186.301 3.13838 0.238254 -0.0991918 0.0
7 53 69.2492 185.514 3.1944 0.0985804 -0.0709116 0.0
7 54 69.2928 184.705 3.14084 -0.208692 -0.0600241 0.0
7 55 69.173 183.915 3.19156 0.109314 -0.0287667 0.0
7 56 69.1776 183.107 3.14259 -0.266308 0.0721852 0.0
7 57 68.9558 182.329 3.18991 -0.22327 -0.14303 0.0
7 58 68.8428 181.536 3.1462 -0.483358 0.0781443 0.0
7 59 68.8865 180.727 3.19114 -0.191283 -0.13993 0.0
7 60 69.0295 179.941 3.14512 -0.359314 -0.00201441 0.0
7 61 68.9568 179.129 3.19423 -0.12904 -0.129336 0.0
7 62 69.1452 178.342 3.14262 -0.13177 -0.00259791 0.0
7 63 69.1298 177.538 3.19411 -0.0951762 -0.0354434 0.0
7 64 69.2115 176.744 3.13669 -0.085786 -0.030127 0.0
7 65 69.4368 175.969 3.19352 -0.0272427 -0.0801525 0.0
7 66 69.637 175.202 3.13831 -0.121686 0.0410345 0.0
7 67 69.864 174.43 3.19622 0.243078 0.0012753 0.0
7 68 69.817 173.615 3.1424 -0.39236 0.0264026 0.0
7 69 70.0609 172.846 3.19631 -0.543299 -0.252218 0.0
7 70 70.0701 172.038 3.1373 -0.518641 -0.0462288 0.0
7 71 70.1116 171.25 3.19442 -0.0979572 -0.243048 0.0
7 72 70.1392 170.441 3.13699 -0.179522 -0.0369684 0.0
7 73 70.3085 169.666 3.19647 -0.103244 -0.0114353 0.0
7 74 70.3583 168.856 3.14378 0.0834969 0.095971 0.0
7 75 70.6197 168.1 3.19676 -0.186762 0.128785 0.0
7 76 70.9263 167.359 3.15462 -0.143255 0.0574769 0.0
7 77 71.1572 166.593 3.19893 0.0779883 0.212145 0.0
7 78 71.4907 165.863 3.16899 0.490564 0.126399 0.0
7 79 71.6242 165.065 3.19889 -0.494252 0.0407086 0.0
7 80 71.8834 164.308 3.18392 -0.132861 -0.0202484 0.0
8 1 256.104 38.6682 3.19999 0.0525373 0.0455891 0.0
8 2 255.289 38.4359 3.17243 -0.136019 -0.0250568 0.0
8 3 254.692 37.9199 3.19054 0.198599 -0.373612 0.0
8 4 254.011 37.4723 3.15166 -0.0578453 -0.0916917 0.0
8 5 253.464 36.8914 3.19264 -0.0463767 -0.179343 0.0
8 6 252.996 36.2359 3.14928 0.265126 -0.374738 0.0
8 7 252.464 35.6425 3.19293 -0.171175 -0.0498899 0.0
8 8 252.125 34.8966 3.14857 -0.315003 -0.034522 0.0
8 9 251.625 34.2826 3.19269 0.202499 -0.152623 0.0