# 12000000
#nworms:800
#np:80
1 1 301.491 90.7217 3.11765 -0.326889 -0.174883 0.0
1 2 301.57 89.9144 3.14434 0.000554712 0.0445405 0.0
1 3 301.91 89.1785 3.12621 -0.358702 -0.174473 0.0
1 4 302.078 88.402 3.16432 0.373791 -0.0273185 0.0
1 5 302.414 87.6604 3.12833 -0.467264 -0.145352 0.0
1 6 302.444 86.8492 3.16988 0.188464 -0.000360206 0.0
1 7 302.697 86.0853 3.12937 0.214076 -0.0468318 0.0
1 8 302.791 85.2905 3.17047 -0.00954738 -0.0101373 0.0
1 9 302.814 84.4909 3.12543 0.560352 -0.117347 0.0
1 10 302.754 83.6914 3.17704 0.226167 -0.0359926 0.0
1 11 302.544 82.9158 3.12991 0.240888 0.0068028 0.0
1 12 302.422 82.1281 3.17451 -0.034396 0.0629616 0.0
1 13 302.28 81.3427 3.12914 0.100174 -0.245223 0.0
1 14 302.206 80.545 3.17622 -0.174306 -0.0415766 0.0
1 15 302.216 79.7426 3.12877 0.0208558 -0.172797 0.0
1 16 302.36 78.9515 3.17914 0.459763 0.180493 0.0
1 17 302.405 78.1534 3.13218 -0.119824 -0.188124 0.0
1 18 302.686 77.3839 3.18434 0.00882216 0.0788118 0.0
1 19 302.715 76.5807 3.1358 -0.10808 -0.101535 0.0
1 20 302.746 75.7845 3.18603 0.0138144 -0.0201967 0.0
1 21 302.789 74.9809 3.13426 0.288829 0.049268 0.0
1 22 302.841 74.1858 3.18849 -0.26383 0.0798002 0.0
1 23 302.805 73.3793 3.13626 -0.369919 -0.129405 0.0
1 24 302.604 72.6013 3.18869 -0.102479 -0.0929075 0.0
1 25 302.335 71.8469 3.13247 -0.0847661 -0.010441 0.0
1 26 302.309 71.0245 3.18999 0.333206 -0.0964278 0.0
1 27 301.998 70.283 3.13612 0.307927 -0.150472 0.0
1 28 301.752 69.5215 3.19714 -0.212072 0.081341 0.0
1 29 301.385 68.8065 3.13498 0.0128306 -0.0206102 0.0
1 30 300.905 68.1591 3.19799 -0.00792938 0.0258844 0.0
1 31 300.387 67.5522 3.13219 -0.08484 0.0132978 0.0
1 32 299.796 67.0006 3.19566 0.0672872 0.0369638 0.0
1 33 299.463 66.2478 3.13686 -0.411575 0.285091 0.0
1 34 298.904 65.6692 3.19794 -0.238352 0.0527189 0.0
1 35 298.366 65.0811 3.14144 -0.0602667 0.0199017 0.0
1 36 297.986 64.3588 3.19744 -0.0519024 0.126465 0.0
1 37 297.421 63.7887 3.13964 0.157776 -0.148843 0.0
1 38 296.865 63.2157 3.19537 -0.118812 0.0914954 0.0
1 39 296.368 62.5836 3.13752 -0.095846 0.15549 0.0
1 40 295.834 61.9959 3.19579 -0.0221796 0.108345 0.0
1 41 295.428 61.2871 3.13962 0.0531237 -0.125024 0.0
1 42 294.902 60.6974 3.19634 0.118847 -0.140751 0.0
1 43 294.177 60.2803 3.14075 0.072681 -0.198814 0.0
1 44 293.719 59.6179 3.19678 -0.177071 0.0857734 0.0
1 45 293.306 58.9335 3.14287 -0.075391 -0.0673768 0.0
1 46 292.848 58.2756 3.1977 -0.192329 0.21245 0.0
1 47 292.412 57.6063 3.14308 -0.15863 0.0620226 0.0
1 48 291.857 57.0222 3.19575 -0.186412 0.0831293 0.0
1 49 291.389 56.3751 3.14106 0.0279637 0.0130391 0.0
1 50 290.837 55.7935 3.19539 0.211026 -0.0320127 0.0
1 51 290.28 55.2181 3.14451 0.0553903 0.0147577 0.0
1 52 289.617 54.7661 3.19492 0.0206374 0.0816246 0.0
1 53 289.12 54.1115 3.14724 0.0689891 0.0618089 0.0
1 54 288.329 53.8266 3.19084 0.0440887 0.058323 0.0
1 55 287.762 53.26 3.14808 -0.134631 0.473978 0.0
1 56 287.052 52.8691 3.1932 0.124664 -0.233795 0.0
1 57 286.482 52.3004 3.147 -0.0385211 0.34399 0.0
1 58 285.845 51.8119 3.19253 0.112518 -0.175931 0.0
1 59 285.16 51.4002 3.14774 -0.132898 0.327857 0.0
1 60 284.384 51.1546 3.19244 -0.00941772 -0.27544 0.0
1 61 283.775 50.6018 3.14728 -0.0518239 -0.035666 0.0
1 62 282.957 50.431 3.19269 -0.219051 0.0566423 0.0
1 63 282.318 49.9366 3.14821 0.0760445 -0.47781 0.0
1 64 281.649 49.5006 3.19585 0.0373168 -0.195575 0.0
1 65 280.958 49.0937 3.15335 0.00384807 0.0173242 0.0
1 66 280.25 48.7216 3.19509 0.0879012 -0.272058 0.0
1 67 279.55 48.3414 3.15382 0.0315223 -0.0142421 0.0
1 68 278.766 48.1166 3.19434 0.101436 -0.41458 0.0
1 69 278.13 47.6049 3.15116 0.115153 -0.130626 0.0
1 70 277.438 47.2173 3.19484 -0.0500561 0.0681614 0.0
1 71 276.706 46.8793 3.1558 0.166646 -0.105574 0.0
1 72 276.045 46.4311 3.19684 0.0104333 0.0908975 0.0
1 73 275.43 45.9168 3.15429 -0.00533433 0.0220449 0.0
1 74 274.85 45.363 3.19759 -0.00635006 0.0777105 0.0
1 75 274.344 44.7372 3.16414 0.13347 -0.0607574 0.0
1 76 273.796 44.1551 3.19839 0.134954 0.0296002 0.0
1 77 273.46 43.4044 3.16696 -0.169065 0.170417 0.0
1 78 272.821 42.8844 3.19683 0.0229722 0.166334 0.0
1 79 272.439 42.168 3.17946 0.296807 -0.106998 0.0
1 80 271.938 41.5487 3.19944 -0.0421009 0.0536674 0.0
2 1 129.417 62.9507 1.09864 -0.167294 -0.180261 0.0
2 2 130.094 62.5276 1.13378 -0.0405249 0.163144 0.0
2 3 130.76 62.0827 1.12687 0.0108304 0.0406327 0.0
2 4 131.421 61.6354 1.16128 -0.13959 -0.164233 0.0
2 5 132.128 61.256 1.135 -0.0224493 -0.0282202 0.0
2 6 132.7 60.6743 1.17027 0.0422406 0.00369173 0.0
2 7 133.376 60.2581 1.13336 0.130007 0.071913 0.0
2 8 134.076 59.8583 1.17877 0.028443 0.0419041 0.0
2 9 134.69 59.3486 1.13533 -0.0136126 0.0187547 0.0
2 10 135.308 58.8361 1.18159 0.0625396 0.0808399 0.0
2 11 135.848 58.2479 1.13671 0.0241487 -0.0392284 0.0
2 12 136.353 57.6211 1.18387 0.177498 0.143428 0.0
2 13 137.018 57.1585 1.13585 -0.0536891 -0.0363912 0.0
2 14 137.651 56.6792 1.17686 0.155701 0.162871 0.0
2 15 138.169 56.0507 1.13436 0.132002 0.175242 0.0
2 16 138.858 55.6261 1.18312 0.0574257 -0.0250803 0.0
2 17 139.461 55.109 1.13302 -0.0930352 -0.126917 0.0
2 18 140.002 54.5063 1.18529 -0.0662695 -0.241097 0.0
2 19 140.662 54.0524 1.13039 -0.00566198 -0.00165235 0.0
2 20 141.348 53.6415 1.18426 0.104373 0.035256 0.0
2 21 142.084 53.3198 1.1278 0.0268977 0.0808347 0.0
2 22 142.856 53.1049 1.17894 -0.0344259 -0.186317 0.0
2 23 143.642 52.9599 1.12791 -0.00894313 0.0745953 0.0
2 24 144.447 52.9373 1.17754 -0.0463181 -0.134683 0.0
2 25 145.238 52.8498 1.12283 -0.0309344 0.202364 0.0
2 26 146.019 52.6383 1.17838 -0.0902217 -0.198293 0.0
2 27 146.814 52.5856 1.1226 -0.0485761 -0.227529 0.0
2 28 147.61 52.4715 1.17889 -0.0493708 0.346113 0.0
2 29 148.412 52.54 1.12098 0.00439712 0.141539 0.0
2 30 149.211 52.538 1.17417 -0.00217971 -0.15222 0.0
2 31 150.01 52.4632 1.12203 0.093527 -0.344223 0.0
2 32 150.811 52.5374 1.17364 -0.0451564 -0.218323 0.0
2 33 151.608 52.4106 1.12569 0.144774 -0.214795 0.0
2 34 152.407 52.4616 1.17356 0.0314798 0.0517172 0.0
2 35 153.205 52.549 1.12856 0.10873 0.0189072 0.0
2 36 153.971 52.7906 1.17223 0.0201927 -0.0117002 0.0
2 37 154.749 52.9736 1.12616 0.127281 -0.189879 0.0
2 38 155.518 53.1859 1.1656 -0.0204133 0.142985 0.0
2 39 156.273 53.4685 1.12065 -0.0325699 0.136767 0.0
2 40 157.046 53.6586 1.16544 -0.0310635 -0.117515 0.0
2 41 157.861 53.6889 1.13341 -0.0401369 0.082902 0.0
2 42 158.609 53.9942 1.16398 -0.0424447 0.0191942 0.0
2 43 159.396 54.1398 1.12494 -0.0610646 0.27238 0.0
2 44 160.139 54.4564 1.15984 0.0538971 -0.167374 0.0
2 45 160.945 54.5394 1.12475 0.00411021 -0.0502675 0.0
2 46 161.71 54.7698 1.16484 -0.0354217 0.226549 0.0
2 47 162.438 55.1186 1.13169 0.180709 -0.428748 0.0
2 48 163.232 55.264 1.1676 0.0450843 -0.107986 0.0
2 49 163.973 55.5696 1.13481 -3.65443e-05 -0.00901524 0.0
2 50 164.735 55.818 1.17288 0.0486233 -0.117051 0.0
2 51 165.534 55.9168 1.13794 0.0397107 -0.162299 0.0
2 52 166.277 56.2563 1.1796 0.0461776 -0.223133 0.0
2 53 167.115 56.1445 1.14884 0.0239401 -0.27037 0.0
2 54 167.863 56.4883 1.18578 -0.0700622 0.160387 0.0
2 55 168.665 56.5352 1.1512 -0.0594319 -0.0398395 0.0
2 56 169.451 56.7126 1.18063 -0.0503531 -0.294508 0.0
2 57 170.259 56.669 1.13783 -0.0858371 0.304668 0.0
2 58 171.053 56.6259 1.16663 0.0263221 0.0357228 0.0
2 59 171.842 56.445 1.13354 -0.121073 0.0940391 0.0
2 60 172.644 56.4346 1.15704 0.038718 0.374707 0.0
2 61 173.426 56.2266 1.12995 -0.15918 0.0344472 0.0
2 62 174.231 56.2454 1.14837 -0.135978 -0.29013 0.0
2 63 175.018 56.0975 1.12075 -0.132068 0.192275 0.0
2 64 175.81 56.0045 1.1378 -0.0550778 0.116102 0.0
2 65 176.572 55.7203 1.10713 -0.153945 -0.0195396 0.0
2 66 177.355 55.5946 1.12691 -0.0196192 0.292523 0.0
2 67 178.172 55.6609 1.11025 -0.142586 -0.101343 0.0
2 68 178.942 55.4262 1.14236 0.00417787 -0.0902475 0.0
2 69 179.754 55.4394 1.12648 -0.0365051 -0.2741 0.0
2 70 180.51 55.1182 1.13946 0.0318145 -0.0555217 0.0
2 71 181.318 55.104 1.11931 0.161268 0.0228494 0.0
2 72 182.098 54.9346 1.13659 -0.0113722 0.248531 0.0
2 73 182.902 54.8751 1.1273 0.183994 0.215698 0.0
2 74 183.679 54.6968 1.14195 -0.0814631 -0.194927 0.0
2 75 184.482 54.6226 1.1338 0.14686 0.139576 0.0
2 76 185.218 54.2584 1.14305 -0.140321 -0.310825 0.0
2 77 185.999 54.1188 1.13464 0.0603009 -0.169398 0.0
2 78 186.772 53.8751 1.12849 -0.076976 -0.0762509 0.0
2 79 187.556 53.7538 1.11752 0.0922574 0.120034 0.0
2 80 188.373 53.8224 1.10084 -0.0535747 0.265506 0.0
3 1 172.243 14.0803 2.83127 0.0115343 -0.0529143 0.0
3 2 171.534 14.3813 2.58461 0.0212912 -0.017122 0.0
3 3 170.989 14.9477 2.34623 0.0390656 -0.00206416 0.0
3 4 170.278 15.2487 2.10787 0.0901427 0.0954936 0.0
3 5 169.65 15.702 1.89861 0.00655237 -0.0445209 0.0
3 6 168.965 16.0641 1.69274 -0.020573 -0.0629915 0.0
3 7 168.274 16.4293 1.52342 0.110403 0.160252 0.0
3 8 167.626 16.8814 1.37333 0.0733201 0.114742 0.0
3 9 166.948 17.2864 1.26364 -0.057107 -0.0900021 0.0
3 10 166.222 17.63 1.18897 -0.0810614 -0.147549 0.0
3 11 165.654 18.2216 1.1489 0.00211034 0.00362167 0.0
3 12 164.963 18.6214 1.12894 -0.0470937 -0.0929163 0.0
3 13 164.243 18.9763 1.1485 -0.0117411 -0.0151294 0.0
3 14 163.495 19.2626 1.16667 -0.0442755 -0.0933789 0.0
3 15 162.713 19.4354 1.22885 0.0256723 0.102979 0.0
3 16 161.935 19.627 1.25251 0.00431191 0.0681436 0.0
3 17 161.243 20.0559 1.33307 -0.098375 -0.207734 0.0
3 18 160.453 20.2289 1.34349 -0.0768696 -0.157074 0.0
3 19 159.731 20.5713 1.42277 -0.0827367 -0.180235 0.0
3 20 159.024 20.9466 1.41989 -0.0271233 -0.0813363 0.0
3 21 158.326 21.3338 1.49077 -0.0412659 -0.117326 0.0
3 22 157.634 21.7357 1.47552 -0.0014735 -0.0549891 0.0
3 23 156.944 22.1417 1.53739 -0.0105026 -0.0809952 0.0
3 24 156.356 22.6947 1.50839 -0.0662818 -0.153703 0.0
3 25 155.599 23.012 1.5593 0.100351 0.0762982 0.0
3 26 155.048 23.6125 1.51907 -0.104414 -0.20505 0.0
3 27 154.373 24.0426 1.56165 0.122485 0.0917411 0.0
3 28 153.762 24.5636 1.52053 0.098082 0.0605434 0.0
3 29 153.242 25.1756 1.56725 0.110424 0.0736263 0.0
3 30 152.664 25.7274 1.52941 0.0567261 0.0193648 0.0
3 31 152.078 26.2722 1.58192 0.0209389 -0.0199235 0.0
3 32 151.46 26.7805 1.5484 -0.00866754 -0.0528577 0.0
3 33 150.832 27.2751 1.60116 -0.068291 -0.127026 0.0
3 34 150.254 27.8313 1.57587 0.0652491 0.0390773 0.0
3 35 149.585 28.2775 1.62403 -0.132841 -0.203998 0.0
3 36 149.009 28.8333 1.61585 0.114257 0.103977 0.0
3 37 148.317 29.2522 1.66865 0.0158914 -0.01016 0.0
3 38 147.767 29.8377 1.69478 -0.0156422 -0.0549321 0.0
3 39 147.212 30.4063 1.76896 -0.0992227 -0.108798 0.0
3 40 146.643 30.9701 1.82249 0.127627 0.0828847 0.0
3 41 146.227 31.6582 1.9176 0.17338 0.116401 0.0
3 42 145.692 32.2489 1.96949 -0.172312 -0.151536 0.0
3 43 145.199 32.8775 2.03926 0.0995539 0.0580819 0.0
3 44 144.607 33.4212 2.05894 -0.123633 -0.113113 0.0
3 45 144.091 34.0319 2.07602 0.210721 0.164658 0.0
3 46 143.591 34.6568 2.07208 0.0685906 0.0438684 0.0
3 47 143.103 35.2906 2.0948 0.0119022 0.000914966 0.0
3 48 142.595 35.91 2.06781 0.0919186 0.063606 0.0
3 49 142.237 36.6356 2.08579 0.00126354 -0.016429 0.0
3 50 141.632 37.1888 2.05503 -0.178154 -0.130581 0.0
3 51 141.244 37.8904 2.07465 0.0522005 0.00797061 0.0
3 52 140.825 38.5728 2.03815 -0.0565875 -0.0538298 0.0
3 53 140.626 39.3661 2.06443 -0.237368 -0.133489 0.0
3 54 140.184 40.0413 2.02488 -0.153522 -0.0871275 0.0
3 55 139.841 40.7606 2.06062 -0.224519 -0.137935 0.0
3 56 139.572 41.5223 2.01857 0.209738 0.0767473 0.0
3 57 139.108 42.1828 2.05633 0.113984 0.0325804 0.0
3 58 138.731 42.8854 2.01257 -0.230026 -0.17745 0.0
3 59 138.277 43.5522 2.0522 -0.106691 -0.126963 0.0
3 60 137.68 44.0948 2.0094 0.178866 0.201418 0.0
3 61 137.06 44.5967 2.05171 -0.0337497 -0.0586909 0.0
3 62 136.32 44.939 2.00803 -0.0868715 -0.157944 0.0
3 63 135.698 45.4434 2.05102 0.0535695 0.0515624 0.0
3 64 135.158 46.0412 2.00486 -0.013085 -0.0465433 0.0
3 65 134.65 46.6567 2.0505 -0.141319 -0.123814 0.0
3 66 134.251 47.3591 2.00377 -0.0955203 -0.078688 0.0
3 67 133.698 47.945 2.05078 0.00129603 -0.0108492 0.0
3 68 133.257 48.6147 2.00317 -0.158433 -0.100958 0.0
3 69 132.881 49.3223 2.0472 0.226735 0.136106 0.0
3 70 132.549 50.0519 2.00259 -0.120601 -0.0593952 0.0
3 71 132.086 50.7108 2.04433 0.143126 0.101043 0.0
3 72 131.81 51.4731 2.00485 -0.0430979 0.00556749 0.0
3 73 131.365 52.1384 2.04182 0.106673 0.0916662 0.0
3 74 130.989 52.85 2.00488 0.374175 0.275997 0.0
3 75 130.474 53.4665 2.0415 0.050865 0.0683625 0.0
3 76 129.963 54.0815 2.01513 0.0433271 0.0222754 0.0
3 77 129.534 54.7617 2.04585 0.274852 0.245653 0.0
3 78 128.768 55.149 2.03899 0.0383981 0.0322619 0.0
3 79 128.434 55.9247 2.06166 -0.389423 -0.370238 0.0
3 80 127.835 56.45 2.06648 0.0820433 0.072205 0.0
4 1 115.756 90.8746 1.11998 0.0631088 -0.182825 0.0
4 2 114.99 91.0922 1.1721 -0.0177688 -0.185151 0.0
4 3 114.167 91.0595 1.17785 0.0612613 -0.0513853 0.0
4 4 113.417 91.3758 1.23778 -0.00891565 -0.0697664 0.0
4 5 112.635 91.5262 1.22642 0.0597075 0.0686174 0.0
4 6 111.837 91.6095 1.29759 -0.0556087 -0.198388 0.0
4 7 111.074 91.8816 1.27548 0.0578927 0.193029 0.0
4 8 110.276 91.9543 1.35207 -0.100164 -0.321218 0.0
4 9 109.494 92.1222 1.32408 -0.0356659 -0.216411 0.0
4 10 108.717 92.304 1.39977 -0.0425842 -0.0167149 0.0
4 11 107.918 92.393 1.36659 0.0299239 0.240942 0.0
4 12 107.127 92.468 1.43642 -0.020573 -0.0255811 0.0
4 13 106.324 92.5006 1.39237 0.0287058 0.115289 0.0
4 14 105.54 92.6502 1.4478 0.0339267 0.0333644 0.0
4 15 104.758 92.8207 1.40091 -0.017852 -0.21183 0.0
4 16 103.997 93.0679 1.44426 -0.0414762 -0.381981 0.0
4 17 103.227 93.2771 1.39521 0.147596 0.253963 0.0
4 18 102.459 93.503 1.43154 0.113428 0.135639 0.0
4 19 101.682 93.6791 1.37727 0.031619 -0.240998 0.0
4 20 100.877 93.7495 1.4103 0.0856632 -0.0149336 0.0
4 21 100.097 93.8679 1.35802 0.00913192 -0.273715 0.0
4 22 99.3333 94.1862 1.39579 0.0786335 0.0393737 0.0
4 23 98.5128 94.0735 1.3466 -0.00908654 -0.247795 0.0
4 24 97.7294 94.1896 1.38503 0.0440705 -0.0663815 0.0
4 25 96.9248 94.2503 1.33418 0.0362113 0.427636 0.0
4 26 96.14 94.3769 1.37431 -0.0249231 -0.310461 0.0
4 27 95.3228 94.2844 1.32612 0.00861223 0.169583 0.0
4 28 94.5424 94.4877 1.37377 0.0132157 0.154955 0.0
4 29 93.7751 94.7041 1.32376 -0.0981801 -0.237175 0.0
4 30 93.0034 94.9319 1.37908 -0.000211926 -0.0027686 0.0
4 31 92.2025 95.0063 1.32946 -0.0560535 -0.122914 0.0
4 32 91.4114 95.116 1.38463 0.0273479 0.0229699 0.0
4 33 90.6096 95.161 1.33489 -0.0152541 -0.101545 0.0
4 34 89.8164 95.254 1.39202 0.0638102 0.331529 0.0
4 35 89.0092 95.2214 1.34164 0.0466828 0.41302 0.0
4 36 88.2222 95.3801 1.39702 0.038384 0.056283 0.0
4 37 87.4217 95.4327 1.34339 0.0355936 0.100109 0.0
4 38 86.6611 95.7291 1.39874 0.0458719 0.0946506 0.0
4 39 85.8822 95.8679 1.33951 0.0300946 0.0436055 0.0
4 40 85.0746 95.9493 1.39919 0.0614837 0.270124 0.0
4 41 84.3315 96.2539 1.34105 0.00666749 -0.0832585 0.0
4 42 83.5846 96.5374 1.40106 -0.10907 -0.129768 0.0
4 43 82.8946 96.9555 1.34289 0.107062 0.0983826 0.0
4 44 82.2728 97.4551 1.39709 -0.0750299 -0.0662739 0.0
4 45 81.7342 98.0584 1.34056 0.0618973 0.0365484 0.0
4 46 81.0474 98.4811 1.39267 0.0405499 0.0621003 0.0
4 47 80.4167 98.967 1.34478 -0.0832749 -0.189526 0.0
4 48 79.7983 99.4804 1.39402 -0.127652 -0.183893 0.0
4 49 79.2558 100.067 1.34939 0.0702186 -0.0453855 0.0
4 50 78.7005 100.647 1.39772 -0.0127352 -0.102919 0.0
4 51 78.2749 101.33 1.35091 0.303832 0.107784 0.0
4 52 77.8323 101.996 1.4006 0.138758 -0.01197 0.0
4 53 77.5691 102.764 1.35618 -0.034434 -0.0749271 0.0
4 54 77.043 103.391 1.40601 0.0945666 -0.0308366 0.0
4 55 76.8596 104.196 1.3621 0.0205743 -0.0453101 0.0
4 56 76.3807 104.849 1.41258 0.308036 0.0943565 0.0
4 57 76.0912 105.599 1.37116 -0.113873 -0.119196 0.0
4 58 75.7345 106.313 1.41917 0.140922 0.0616218 0.0
4 59 75.4668 107.074 1.37947 -0.238793 -0.171309 0.0
4 60 74.8672 107.658 1.42765 -0.0781958 -0.048243 0.0
4 61 74.619 108.434 1.38928 0.0432951 -0.00105082 0.0
4 62 74.2011 109.109 1.43882 -0.0772413 -0.0188822 0.0
4 63 73.8638 109.846 1.4034 -0.0821093 -0.059456 0.0
4 64 73.3285 110.449 1.45393 -0.0360228 0.00982438 0.0
4 65 72.813 111.055 1.41755 0.032551 0.0617667 0.0
4 66 72.1706 111.551 1.46632 0.105583 0.157992 0.0
4 67 71.7622 112.261 1.42811 0.0106588 0.0686095 0.0
4 68 71.1708 112.799 1.47832 -0.0139942 0.0578266 0.0
4 69 70.6226 113.383 1.43741 -0.0138619 0.0563705 0.0
4 70 70.0635 113.954 1.48507 -0.166839 -0.102268 0.0
4 71 69.4313 114.449 1.43773 0.103404 0.145204 0.0
4 72 69.0023 115.153 1.48513 -0.0180218 0.0256045 0.0
4 73 68.3849 115.66 1.44016 -0.209309 -0.178027 0.0
4 74 67.7572 116.162 1.48811 -0.0905349 -0.0535126 0.0
4 75 67.0701 116.571 1.4429 -0.181428 -0.215967 0.0
4 76 66.3583 116.947 1.48327 -0.0510078 0.072852 0.0
4 77 65.5597 117.098 1.43883 -0.10106 -0.0578389 0.0
4 78 64.8054 117.347 1.48472 -0.110437 0.0442007 0.0
4 79 64.0741 117.692 1.46748 -0.051383 0.0470257 0.0
4 80 63.4177 118.149 1.50636 -0.233506 -0.121602 0.0
5 1 240.983 90.7219 1.13151 -0.141326 0.0503955 0.0
5 2 241.123 91.5072 1.13608 0.410774 -0.0197296 0.0
5 3 241.358 92.2778 1.17538 0.00805303 0.0123379 0.0
5 4 241.523 93.0561 1.16666 0.00282063 0.0671316 0.0
5 5 241.794 93.8199 1.2269 -0.0897993 0.0304686 0.0
5 6 241.771 94.6343 1.21243 0.254663 -0.0107435 0.0
5 7 242.056 95.4016 1.28165 0.487825 -0.0864924 0.0
5 8 242.022 96.2127 1.26569 0.195383 -0.0263981 0.0
5 9 242.042 97.0062 1.33317 -0.0904339 -0.0912723 0.0
5 10 242.301 97.7893 1.31303 0.127268 -0.0473205 0.0
5 11 242.255 98.5931 1.37894 -0.147943 -0.0735096 0.0
5 12 242.341 99.3902 1.36168 -0.0793351 -0.0717263 0.0
5 13 242.426 100.184 1.4206 -0.330212 -0.0362717 0.0
5 14 242.737 100.943 1.39952 -0.383739 -0.0104422 0.0
5 15 242.609 101.773 1.45435 0.1506 -0.0785121 0.0
5 16 242.906 102.536 1.42724 -0.0199629 -0.038214 0.0
5 17 243.0 103.322 1.48678 0.141809 -0.0628175 0.0
5 18 243.097 104.13 1.45405 -0.0955341 0.00722509 0.0
5 19 243.383 104.875 1.51328 -0.111661 0.0109835 0.0
5 20 243.778 105.587 1.47104 -0.0274586 0.0279177 0.0
5 21 243.829 106.409 1.5269 -0.33286 0.095368 0.0
5 22 244.038 107.174 1.48553 0.0060318 0.0509495 0.0
5 23 244.378 107.91 1.54037 -0.303702 0.104544 0.0
5 24 244.62 108.669 1.49515 -0.0602918 0.0962855 0.0
5 25 244.93 109.411 1.55058 0.113341 -0.0358858 0.0
5 26 245.284 110.128 1.50309 0.0942713 0.0111525 0.0
5 27 245.637 110.845 1.5566 -0.0658356 0.0452787 0.0
5 28 246.064 111.528 1.51051 0.0649619 -0.00640199 0.0
5 29 246.461 112.218 1.56159 0.0566246 -0.0440432 0.0
5 30 246.551 113.057 1.51592 0.19282 -0.0877583 0.0
5 31 247.01 113.721 1.5633 -0.0145468 -0.0345269 0.0
5 32 247.374 114.433 1.52129 0.186356 -0.117143 0.0
5 33 247.831 115.094 1.5591 0.191019 -0.170473 0.0
5 34 248.408 115.657 1.5277 -0.0276135 0.0518087 0.0
5 35 248.854 116.324 1.55292 -0.0815322 0.0613567 0.0
5 36 249.327 116.965 1.54026 -0.14257 0.15413 0.0
5 37 249.675 117.698 1.54284 -0.0820093 0.0942787 0.0
5 38 250.295 118.236 1.54695 0.235551 -0.100947 0.0
5 39 250.684 118.938 1.52809 0.16874 -0.0695091 0.0
5 40 251.197 119.556 1.54816 0.0173141 0.0663551 0.0
5 41 251.688 120.183 1.51435 0.0819143 0.00605299 0.0
5 42 252.099 120.876 1.54362 -0.169815 0.206673 0.0
5 43 252.627 121.477 1.49421 0.0291189 0.0342652 0.0
5 44 253.15 122.083 1.53281 0.243259 -0.153776 0.0
5 45 253.583 122.759 1.47584 0.278024 -0.182709 0.0
5 46 254.053 123.402 1.51748 0.0220035 -0.0153612 0.0
5 47 254.375 124.15 1.45833 -0.172222 0.0694113 0.0
5 48 254.898 124.76 1.49746 -0.0322571 0.0125632 0.0
5 49 255.372 125.402 1.44034 0.026824 -0.0833733 0.0
5 50 255.928 125.984 1.48036 -0.0336385 0.020502 0.0
5 51 256.488 126.549 1.42359 0.138704 -0.179595 0.0
5 52 256.969 127.2 1.46775 -0.190659 0.189587 0.0
5 53 257.574 127.723 1.41096 -0.0493779 0.0143043 0.0
5 54 258.205 128.22 1.45558 -0.0827991 0.076066 0.0
5 55 258.72 128.836 1.3992 -0.0899275 0.0858064 0.0
5 56 259.416 129.269 1.44232 -0.0015179 -0.0127541 0.0
5 57 259.921 129.893 1.39261 -0.025175 0.0259786 0.0
5 58 260.373 130.556 1.43724 0.265211 -0.213975 0.0
5 59 260.802 131.228 1.38462 0.0988636 -0.0634174 0.0
5 60 261.318 131.85 1.42651 0.300314 -0.223263 0.0
5 61 261.761 132.508 1.36978 0.096817 -0.0674679 0.0
5 62 261.984 133.309 1.41009 -0.0507864 -0.0309216 0.0
5 63 262.493 133.931 1.35715 0.0691393 -0.0477636 0.0
5 64 262.998 134.55 1.39297 -0.047653 0.0221291 0.0
5 65 263.613 135.073 1.34015 -0.0430957 0.0913968 0.0
5 66 264.141 135.669 1.37582 -0.153941 0.214104 0.0
5 67 264.586 136.343 1.32032 -0.172745 0.239146 0.0
5 68 265.152 136.908 1.34969 -0.133142 0.251995 0.0
5 69 265.73 137.458 1.28764 -0.177188 0.316913 0.0
5 70 266.36 137.955 1.31427 0.0104183 0.123295 0.0
5 71 266.786 138.657 1.25188 0.209431 0.00862306 0.0
5 72 267.408 139.164 1.28055 0.19419 -0.0371036 0.0
5 73 267.973 139.725 1.21929 0.121447 0.0829711 0.0
5 74 268.516 140.317 1.24415 0.0842886 0.0581509 0.0
5 75 269.143 140.811 1.19315 0.141172 -0.00435953 0.0
5 76 269.77 141.313 1.20912 -0.0302287 0.182286 0.0
5 77 270.332 141.877 1.16236 0.0200807 0.0581928 0.0
5 78 270.772 142.561 1.16145 0.00660158 0.143001 0.0
5 79 271.41 143.059 1.12053 -0.162515 0.172773 0.0
5 80 272.067 143.504 1.09423 0.0994007 -0.00622716 0.0
6 1 210.944 44.029 1.08092 0.0470276 -0.0529295 0.0
6 2 211.663 44.3672 1.09347 0.0672066 0.0808263 0.0
6 3 212.46 44.5423 1.10861 0.0288997 -0.00763344 0.0
6 4 213.133 44.9997 1.11302 0.00841869 0.188856 0.0
6 5 213.879 45.2823 1.13157 0.187938 -0.334433 0.0
6 6 214.648 45.5236 1.12964 0.0633107 0.0339315 0.0
6 7 215.449 45.5967 1.15352 0.151248 -0.285904 0.0
6 8 216.244 45.6667 1.1401 0.082391 -0.000628941 0.0
6 9 217.038 45.7814 1.17468 0.100623 -0.0529698 0.0
6 10 217.816 45.973 1.15028 0.0671836 0.0711614 0.0
6 11 218.598 46.1407 1.18729 0.138964 -0.316028 0.0
6 12 219.403 46.1889 1.156 0.0127652 0.40491 0.0
6 13 220.182 46.3622 1.19588 0.0748729 0.0331544 0.0
6 14 220.988 46.4241 1.15714 0.0238168 0.202551 0.0
6 15 221.738 46.7311 1.20218 0.135796 -0.315796 0.0
6 16 222.512 46.9154 1.15663 0.0495699 -0.0148716 0.0
6 17 223.298 47.0856 1.20135 -0.0650411 0.422543 0.0
6 18 224.09 47.1716 1.15348 0.0340913 -0.21606 0.0
6 19 224.88 47.3373 1.20075 -0.0360233 0.0334421 0.0
6 20 225.685 47.2584 1.1471 -0.0357991 0.00912024 0.0
6 21 226.482 47.3668 1.20342 -0.055803 0.277819 0.0
6 22 227.28 47.3409 1.14079 -0.0754828 -0.0216715 0.0
6 23 228.081 47.244 1.2051 -0.100799 -0.0406909 0.0
6 24 228.847 47.0184 1.13534 -0.0465712 0.236571 0.0
6 25 229.555 46.6148 1.20838 -0.0597993 0.0818003 0.0
6 26 230.366 46.52 1.1272 -0.147407 -0.0918493 0.0
6 27 231.109 46.2286 1.21506 -0.0414764 0.172719 0.0
6 28 231.86 45.9489 1.12324 -0.0313606 0.158966 0.0
6 29 232.599 45.6372 1.22012 -0.132126 -0.0708462 0.0
6 30 233.205 45.0841 1.12481 -0.0957833 -0.00846588 0.0
6 31 233.953 44.78 1.23117 -0.0386107 0.0808195 0.0
6 32 234.612 44.3273 1.11551 0.14687 0.326723 0.0
6 33 235.231 43.8127 1.20808 -0.131687 -0.0483562 0.0
6 34 235.741 43.191 1.075 -0.0334709 0.0831048 0.0
6 35 236.121 42.4838 1.13633 0.034887 0.0648712 0.0
6 36 236.466 41.7644 0.996425 0.132397 0.114404 0.0
6 37 236.656 40.9802 1.03911 -0.0903283 0.00982705 0.0
6 38 236.79 40.1971 0.93197 0.0243445 0.0575435 0.0
6 39 236.836 39.3903 1.02197 0.118269 0.0236333 0.0
6 40 236.707 38.5983 0.920554 0.110335 0.0313063 0.0
6 41 236.51 37.8225 1.02845 0.191964 -0.00295137 0.0
6 42 236.208 37.0803 0.923992 -0.119601 0.1075 0.0
6 43 235.981 36.3125 1.02864 0.0454417 0.0396187 0.0
6 44 235.629 35.5917 0.929253 0.185627 -0.0164191 0.0
6 45 235.28 34.8737 1.02583 -0.301536 0.19967 0.0
6 46 234.913 34.1644 0.952223 -0.0828942 0.117805 0.0
6 47 234.573 33.4375 1.05516 0.0823985 0.00646646 0.0
6 48 234.076 32.8028 1.00461 -0.140453 0.15552 0.0
6 49 233.576 32.1846 1.0969 0.0883364 -0.00853693 0.0
6 50 233.141 31.5072 1.05128 -0.131858 0.155515 0.0
6 51 232.515 30.987 1.12787 0.0581013 -0.00905599 0.0
6 52 232.123 30.2728 1.0754 0.32343 -0.210022 0.0
6 53 231.585 29.6848 1.14138 0.246567 -0.187078 0.0
6 54 231.045 29.089 1.08 0.0177582 0.0516031 0.0
6 55 230.417 28.5903 1.14253 0.0528469 -0.0194758 0.0
6 56 229.765 28.1264 1.08815 -0.00702579 0.0438847 0.0
6 57 229.104 27.6747 1.14793 0.117578 -0.148963 0.0
6 58 228.457 27.2042 1.0935 0.0430502 -0.0465078 0.0
6 59 227.824 26.7135 1.14735 0.129907 -0.197885 0.0
6 60 227.154 26.2725 1.09006 -0.0682679 0.0965041 0.0
6 61 226.479 25.8447 1.15003 -0.00582932 0.0183152 0.0
6 62 225.818 25.3896 1.09241 0.101912 -0.174195 0.0
6 63 225.1 25.0303 1.14632 0.00803211 0.0129869 0.0
6 64 224.354 24.738 1.09129 -0.048387 0.170193 0.0
6 65 223.582 24.5209 1.14393 -0.0303709 0.189467 0.0
6 66 222.807 24.3325 1.09763 -0.0146475 0.10406 0.0
6 67 222.021 24.1617 1.14465 0.017011 0.0129122 0.0
6 68 221.217 24.1475 1.09973 0.0378192 -0.269556 0.0
6 69 220.419 24.1591 1.14391 0.031811 -0.047281 0.0
6 70 219.617 24.1679 1.10014 0.0511414 0.0744657 0.0
6 71 218.837 24.392 1.13668 0.0652395 0.0668007 0.0
6 72 218.033 24.4053 1.0944 0.046593 -0.0460051 0.0
6 73 217.249 24.5592 1.11574 0.0909572 0.151369 0.0
6 74 216.472 24.7595 1.07297 0.0834022 0.111096 0.0
6 75 215.692 24.9154 1.07833 0.0752612 0.056409 0.0
6 76 214.884 24.9616 1.03126 0.0716433 -0.0265826 0.0
6 77 214.132 25.2519 1.02111 0.107681 0.161502 0.0
6 78 213.365 25.4684 0.981477 0.120221 0.0848805 0.0
6 79 212.604 25.7199 0.964515 0.0521766 -0.045382 0.0
6 80 211.779 25.6792 0.937972 0.101078 -0.0551459 0.0
7 1 152.031 46.6966 3.18451 0.0765148 0.350524 0.0
7 2 151.229 46.7572 3.19994 -0.196915 -0.0946752 0.0
7 3 150.499 47.1442 3.16948 -0.0923462 -0.076894 0.0
7 4 149.707 47.2682 3.19601 -0.281498 -0.197807 0.0
7 5 148.968 47.603 3.15596 -0.0386983 0.0265998 0.0
7 6 148.229 47.8948 3.1981 -0.053422 0.235967 0.0
7 7 147.461 48.1355 3.15425 -0.076788 -0.0255494 0.0
7 8 146.695 48.3615 3.19566 -0.195328 0.00906198 0.0
7 9 145.905 48.5001 3.1502 0.054184 0.39694 0.0
7 10 145.111 48.6106 3.19383 -0.111232 -0.217141 0.0
7 11 144.307 48.5403 3.15123 0.0666733 0.193364 0.0
7 12 143.52 48.4364 3.19656 -0.22729 0.00444946 0.0
7 13 142.713 48.5254 3.15081 -0.0462147 -0.225975 0.0
7 14 141.929 48.2626 3.19564 -0.201491 -0.110242 0.0
7 15 141.126 48.3398 3.14918 -0.0923046 -0.132055 0.0
7 16 140.336 48.3736 3.19536 -0.139917 -0.0626294 0.0
7 17 139.527 48.3386 3.15307 -0.210726 -0.332151 0.0
7 18 138.752 48.5676 3.19723 -0.0966559 -0.0629774 0.0
7 19 137.978 48.746 3.15688 -0.0905861 0.331761 0.0
7 20 137.22 49.0248 3.19987 -0.121857 -0.160143 0.0
7 21 136.386 48.9354 3.15675 -0.153495 -0.449714 0.0
7 22 135.627 49.2176 3.19988 0.103718 0.289238 0.0
7 23 134.896 49.525 3.15362 -0.0493157 -0.284462 0.0
7 24 134.333 50.1666 3.19926 -0.041625 -0.0869571 0.0
7 25 133.559 50.4107 3.1496 0.121327 -0.0760606 0.0
7 26 132.778 50.5791 3.19872 0.154123 0.599041 0.0
7 27 131.958 50.36 3.15085 0.0240009 -0.381391 0.0
7 28 131.179 50.5752 3.19936 0.163618 -0.0376541 0.0
7 29 130.381 50.6139 3.1504 0.0941992 -0.0794984 0.0
7 30 129.586 50.7032 3.19544 0.080977 -0.141545 0.0
7 31 128.795 50.8205 3.14624 0.151813 0.0189924 0.0
7 32 128.04 51.1159 3.1952 0.109853 0.152694 0.0
7 33 127.26 51.2712 3.14583 0.0873342 0.255436 0.0
7 34 126.474 51.4403 3.19788 -0.00627164 -0.0400538 0.0
7 35 125.66 51.3172 3.15199 0.0159025 0.209072 0.0
7 36 124.877 51.5603 3.19933 0.0329392 0.164088 0.0
7 37 124.079 51.5735 3.15223 -0.047989 0.0475248 0.0
7 38 123.276 51.5517 3.19891 0.054372 -0.067897 0.0
7 39 122.478 51.629 3.15682 -0.0108509 0.0101489 0.0
7 40 121.698 51.8141 3.19941 0.0205078 0.105976 0.0
7 41 120.919 51.9937 3.16088 -0.0156002 0.0196896 0.0
7 42 120.144 52.1965 3.19781 0.0943002 0.314935 0.0
7 43 119.397 52.4915 3.16121 -0.075173 -0.274476 0.0
7 44 118.626 52.7094 3.19743 -0.0363288 -0.00221694 0.0
7 45 117.83 52.8231 3.16229 0.0390054 -0.0334635 0.0
7 46 117.027 52.847 3.19896 -0.0550304 0.000583578 0.0
7 47 116.232 52.8267 3.15985 -0.0545468 0.0887222 0.0
7 48 115.428 52.7404 3.19921 -0.0337655 0.0702214 0.0
7 49 114.641 52.987 3.15891 -0.0534252 -0.349576 0.0
7 50 113.84 52.9503 3.2 -0.0106739 -0.0496347 0.0
7 51 113.042 53.0254 3.16131 -0.0233307 -0.0881281 0.0
7 52 112.243 53.0697 3.19997 0.00566291 0.0812802 0.0
7 53 111.443 52.9542 3.16886 -0.0117879 0.201238 0.0
7 54 110.661 52.8154 3.19989 -0.0248973 0.244237 0.0
7 55 109.845 52.9038 3.17971 0.023402 -0.306648 0.0
7 56 109.063 52.71 3.2 0.00722238 -0.0514647 0.0
7 57 108.274 52.587 3.18901 -0.0332907 0.208526 0.0
7 58 107.461 52.7203 3.19999 0.0668572 -0.177533 0.0
7 59 106.676 52.4931 3.19299 -0.0211409 0.0982215 0.0
7 60 105.87 52.5425 3.19976 0.0296889 0.0355701 0.0
7 61 105.077 52.4256 3.17982 -0.015297 0.0132606 0.0
7 62 104.282 52.3238 3.19933 0.0690298 -0.106049 0.0
7 63 103.478 52.3131 3.16516 -0.0524102 0.133958 0.0
7 64 102.69 52.1432 3.19881 0.0861517 -0.229571 0.0
7 65 101.903 52.0314 3.15338 0.0547479 -0.210947 0.0
7 66 101.125 51.8026 3.19915 -0.0226176 0.0506618 0.0
7 67 100.329 51.749 3.15403 -0.0727856 0.31384 0.0
7 68 99.5545 51.4864 3.19981 0.0943074 0.0651003 0.0
7 69 98.751 51.5025 3.15727 0.103874 0.365149 0.0
7 70 97.9525 51.4383 3.19962 0.0895288 0.562785 0.0
7 71 97.153 51.4606 3.15628 0.0873403 0.0312396 0.0
7 72 96.3634 51.6275 3.19871 0.0359791 -0.355567 0.0
7 73 95.5573 51.5876 3.16157 0.0416434 0.00771029 0.0
7 74 94.7653 51.7132 3.19989 -9.82799e-05 -0.113411 0.0
7 75 93.9604 51.6858 3.16542 0.0233568 0.517686 0.0
7 76 93.1725 51.858 3.19988 -0.107867 -0.0587875 0.0
7 77 92.3663 51.8562 3.17436 0.0439342 0.108645 0.0
7 78 91.5685 51.9113 3.19981 0.0059544 -0.0583925 0.0
7 79 90.7926 52.1516 3.18439 -0.0843798 -0.186648 0.0
7 80 90.0351 52.3853 3.19982 0.00184501 -0.154214 0.0
8 1 102.12 92.0486 0.0239588 0.0465583 0.0873312 0.0
8 2 102.932 92.0994 0.00335383 0.00992584 -0.129897 0.0
8 3 103.715 91.9092 0.02813 0.011961 -0.221501 0.0
8 4 104.512 91.8443 0.00108233 0.0514774 0.0618004 0.0
8 5 105.315 91.8219 0.043099 0.0689878 0.131813 0.0
8 6 106.105 91.7094 0.00168782 0.087363 -0.227155 0.0
8 7 106.897 91.5636 0.047608 0.081436 -0.154786 0.0
8 8 107.699 91.5633 0.000564378 0.0869763 0.00762327 0.0
8 9 108.477 91.3189 0.0514364 0.152032 0.0931641 0.0