54072
# 0 nworms=800 np=60 boundary=2 numSol=3068 numPoints=3000
A 281.575 164.378 1.00242 0.0 0.0 0.0
A 280.207 167.626 1.00242 0.0 0.0 0.0
A 279.181 160.858 1.00242 0.0 0.0 0.0
A 281.351 164.5 1.00242 0.0 0.0 0.0
A 279.077 168.902 1.00242 0.0 0.0 0.0
A 277.325 159.925 1.00242 0.0 0.0 0.0
A 281.663 164.36 1.00242 0.0 0.0 0.0
A 281.968 167.875 1.00242 0.0 0.0 0.0
A 272.493 164.464 1.00242 0.0 0.0 0.0
A 281.913 160.529 1.00242 0.0 0.0 0.0
A 281.48 164.531 1.00242 0.0 0.0 0.0
A 279.474 170.808 1.00242 0.0 0.0 0.0
A 271.411 161.338 1.00242 0.0 0.0 0.0
A 282.494 160.725 1.00242 0.0 0.0 0.0
A 281.524 164.544 1.00242 0.0 0.0 0.0
A 280.103 171.419 1.00242 0.0 0.0 0.0
A 269.062 163.508 1.00242 0.0 0.0 0.0
A 281.074 157.868 1.00242 0.0 0.0 0.0
A 281.462 164.479 1.00242 0.0 0.0 0.0
A 282.878 168.655 1.00242 0.0 0.0 0.0
A 270.263 171.126 1.00242 0.0 0.0 0.0
A 273.243 155.692 1.00242 0.0 0.0 0.0
A 283.147 161.894 1.00242 0.0 0.0 0.0
A 281.808 164.674 1.00242 0.0 0.0 0.0
A 280.444 172.953 1.00242 0.0 0.0 0.0
A 265.949 167.069 1.00242 0.0 0.0 0.0
A 276.307 154.114 1.00242 0.0 0.0 0.0
A 282.969 162.983 1.00242 0.0 0.0 0.0
A 282.261 165.002 1.00242 0.0 0.0 0.0
A 279.589 174.393 1.00242 0.0 0.0 0.0
A 264.261 167.321 1.00242 0.0 0.0 0.0
A 274.814 152.96 1.00242 0.0 0.0 0.0
A 283.439 161.981 1.00242 0.0 0.0 0.0
A 281.789 164.644 1.00242 0.0 0.0 0.0
A 281.935 173.227 1.00242 0.0 0.0 0.0
A 265.178 172.555 1.00242 0.0 0.0 0.0
A 268.322 153.449 1.00242 0.0 0.0 0.0
A 283.356 157.746 1.00242 0.0 0.0 0.0
A 281.441 164.488 1.00242 0.0 0.0 0.0
A 283.875 168.452 1.00242 0.0 0.0 0.0
A 272.954 177.88 1.00242 0.0 0.0 0.0
A 260.607 162.207 1.00242 0.0 0.0 0.0
A 276.487 151.113 1.00242 0.0 0.0 0.0
A 283.67 162.038 1.00242 0.0 0.0 0.0
A 281.763 164.619 1.00242 0.0 0.0 0.0
A 283.114 173.186 1.00242 0.0 0.0 0.0
A 266.025 177.136 1.00242 0.0 0.0 0.0
A 261.066 156.283 1.00242 0.0 0.0 0.0
A 279.831 151.728 1.00242 0.0 0.0 0.0
A 283.15 163.192 1.00242 0.0 0.0 0.0
A 282.308 164.934 1.00242 0.0 0.0 0.0
A 282.399 175.219 1.00242 0.0 0.0 0.0
A 263.655 177.321 1.00242 0.0 0.0 0.0
A 259.849 155.201 1.00242 0.0 0.0 0.0
A 279.488 150.627 1.00242 0.0 0.0 0.0
A 283.515 162.746 1.00242 0.0 0.0 0.0
A 282.019 164.734 1.00242 0.0 0.0 0.0
A 283.543 174.212 1.00242 0.0 0.0 0.0
A 265.794 180.088 1.00242 0.0 0.0 0.0
A 256.159 159.007 1.00242 0.0 0.0 0.0
B 277.503 148.655 1.25234 0.0 0.0 0.0
B 284.235 161.415 1.25234 0.0 0.0 0.0
B 281.533 164.531 1.25234 0.0 0.0 0.0
B 284.643 171.786 1.25234 0.0 0.0 0.0
B 270.406 182.318 1.25234 0.0 0.0 0.0
B 253.685 165.868 1.25234 0.0 0.0 0.0
B 267.655 146.645 1.25234 0.0 0.0 0.0
B 284.328 155.109 1.25234 0.0 0.0 0.0
B 281.985 164.299 1.25234 0.0 0.0 0.0
B 283.662 166.241 1.25234 0.0 0.0 0.0
B 281.009 179.337 1.25234 0.0 0.0 0.0
B 259.386 179.65 1.25234 0.0 0.0 0.0
B 254.254 155.039 1.25234 0.0 0.0 0.0
B 275.669 146.079 1.25234 0.0 0.0 0.0
B 284.979 159.549 1.25234 0.0 0.0 0.0
B 281.351 164.5 1.25234 0.0 0.0 0.0
B 284.978 169.199 1.25234 0.0 0.0 0.0
B 276.319 183.222 1.25234 0.0 0.0 0.0
B 253.76 175.905 1.25234 0.0 0.0 0.0
B 256.012 149.973 1.25234 0.0 0.0 0.0
B 278.818 146.697 1.25234 0.0 0.0 0.0
B 284.736 160.966 1.25234 0.0 0.0 0.0
B 281.422 164.507 1.25234 0.0 0.0 0.0
B 285.349 170.639 1.25234 0.0 0.0 0.0
B 274.689 184.759 1.25234 0.0 0.0 0.0
B 251.714 175.707 1.25234 0.0 0.0 0.0
B 254.77 149.043 1.25234 0.0 0.0 0.0
B 278.302 145.5 1.25234 0.0 0.0 0.0
B 285.097 160.252 1.25234 0.0 0.0 0.0
B 281.358 164.5 1.25234 0.0 0.0 0.0
B 285.36 169.617 1.25234 0.0 0.0 0.0
B 277.1 184.667 1.25234 0.0 0.0 0.0
B 252.86 179.834 1.25234 0.0 0.0 0.0
B 250.191 152.32 1.25234 0.0 0.0 0.0
B 273.739 142.618 1.25234 0.0 0.0 0.0
B 285.739 156.936 1.25234 0.0 0.0 0.0
B 281.654 164.442 1.25234 0.0 0.0 0.0
B 284.348 166.862 1.25234 0.0 0.0 0.0
B 282.223 181.46 1.25234 0.0 0.0 0.0
B 259.221 186.088 1.25234 0.0 0.0 0.0
B 245.231 161.841 1.25234 0.0 0.0 0.0
B 263.511 141.205 1.25234 0.0 0.0 0.0
B 284.136 149.826 1.25234 0.0 0.0 0.0
B 283.637 163.115 1.25234 0.0 0.0 0.0
B 282.1 164.725 1.25234 0.0 0.0 0.0
B 285.938 174.089 1.25234 0.0 0.0 0.0
B 271.644 188.481 1.25234 0.0 0.0 0.0
B 247.021 177.339 1.25234 0.0 0.0 0.0
B 249.196 148.25 1.25234 0.0 0.0 0.0
B 274.612 141.018 1.25234 0.0 0.0 0.0
B 286.16 156.503 1.25234 0.0 0.0 0.0
B 281.769 164.41 1.25234 0.0 0.0 0.0
B 284.198 166.472 1.25234 0.0 0.0 0.0
B 283.858 180.948 1.25234 0.0 0.0 0.0
B 261.855 189.604 1.25234 0.0 0.0 0.0
B 242.032 168.491 1.25234 0.0 0.0 0.0
B 254.654 141.743 1.25234 0.0 0.0 0.0
B 280.076 143.308 1.25234 0.0 0.0 0.0
B 285.759 159.696 1.25234 0.0 0.0 0.0
B 281.358 164.5 1.25234 0.0 0.0 0.0
A 286.898 170.195 1.37489 0.0 0.0 0.0
A 281.474 164.512 1.37489 0.0 0.0 0.0
A 285.163 161.863 1.37489 0.0 0.0 0.0
A 286.346 145.878 1.37489 0.0 0.0 0.0
A 265.477 131.034 1.37489 0.0 0.0 0.0
A 236.274 144.282 1.37489 0.0 0.0 0.0
A 232.97 178.726 1.37489 0.0 0.0 0.0
A 259.782 197.716 1.37489 0.0 0.0 0.0
A 284.314 186.423 1.37489 0.0 0.0 0.0
A 286.139 168.741 1.37489 0.0 0.0 0.0
A 281.352 164.5 1.37489 0.0 0.0 0.0
A 285.914 160.636 1.37489 0.0 0.0 0.0
A 284.592 143.412 1.37489 0.0 0.0 0.0
A 260.766 131.999 1.37489 0.0 0.0 0.0
A 234.457 150.624 1.37489 0.0 0.0 0.0
A 238.267 184.376 1.37489 0.0 0.0 0.0
A 267.246 196.321 1.37489 0.0 0.0 0.0
A 286.539 180.95 1.37489 0.0 0.0 0.0
A 284.358 166.307 1.37489 0.0 0.0 0.0
A 281.759 164.424 1.37489 0.0 0.0 0.0
A 287.137 157.027 1.37489 0.0 0.0 0.0
A 279.54 138.593 1.37489 0.0 0.0 0.0
A 251.566 135.567 1.37489 0.0 0.0 0.0
A 233.244 162.61 1.37489 0.0 0.0 0.0
A 248.741 191.628 1.37489 0.0 0.0 0.0
A 277.486 191.492 1.37489 0.0 0.0 0.0
A 287.211 173.177 1.37489 0.0 0.0 0.0
A 282.004 164.659 1.37489 0.0 0.0 0.0
A 283.887 163.113 1.37489 0.0 0.0 0.0
A 286.489 149.468 1.37489 0.0 0.0 0.0
A 268.193 134.487 1.37489 0.0 0.0 0.0
A 240.508 146.579 1.37489 0.0 0.0 0.0
A 238.724 179.211 1.37489 0.0 0.0 0.0
A 265.335 194.45 1.37489 0.0 0.0 0.0
A 285.717 181.048 1.37489 0.0 0.0 0.0
A 284.327 166.375 1.37489 0.0 0.0 0.0
A 281.754 164.422 1.37489 0.0 0.0 0.0
A 286.85 156.896 1.37489 0.0 0.0 0.0
A 278.055 139.225 1.37489 0.0 0.0 0.0
A 250.423 139.309 1.37489 0.0 0.0 0.0
A 236.812 167.882 1.37489 0.0 0.0 0.0
A 256.453 192.103 1.37489 0.0 0.0 0.0
A 281.973 186.008 1.37489 0.0 0.0 0.0
A 285.864 168.94 1.37489 0.0 0.0 0.0
A 281.351 164.5 1.37489 0.0 0.0 0.0
A 285.692 160.392 1.37489 0.0 0.0 0.0
A 282.243 143.709 1.37489 0.0 0.0 0.0
A 257.33 137.611 1.37489 0.0 0.0 0.0
A 238.43 161.587 1.37489 0.0 0.0 0.0
A 252.706 189.023 1.37489 0.0 0.0 0.0
A 279.386 187.551 1.37489 0.0 0.0 0.0
A 286.238 170.366 1.37489 0.0 0.0 0.0
A 281.444 164.509 1.37489 0.0 0.0 0.0
A 285.05 161.451 1.37489 0.0 0.0 0.0
A 283.161 145.689 1.37489 0.0 0.0 0.0
A 259.627 138.271 1.37489 0.0 0.0 0.0
A 240.224 160.814 1.37489 0.0 0.0 0.0
A 253.651 187.943 1.37489 0.0 0.0 0.0
A 279.711 186.436 1.37489 0.0 0.0 0.0
A 285.917 169.692 1.37489 0.0 0.0 0.0
A 281.658 190.598 0.247547 0.0 0.0 0.0
A 253.893 197.994 0.247547 0.0 0.0 0.0
A 229.532 174.299 0.247547 0.0 0.0 0.0
A 237.687 140.13 0.247547 0.0 0.0 0.0
A 268.29 130.524 0.247547 0.0 0.0 0.0
A 287.207 147.205 0.247547 0.0 0.0 0.0
A 284.761 162.399 0.247547 0.0 0.0 0.0
A 281.609 164.536 0.247547 0.0 0.0 0.0
A 287.303 170.996 0.247547 0.0 0.0 0.0
A 282.72 190.272 0.247547 0.0 0.0 0.0
A 255.533 199.582 0.247547 0.0 0.0 0.0
A 229.002 177.869 0.247547 0.0 0.0 0.0
A 233.74 142.369 0.247547 0.0 0.0 0.0
A 264.029 128.795 0.247547 0.0 0.0 0.0
A 286.246 143.701 0.247547 0.0 0.0 0.0
A 285.943 160.951 0.247547 0.0 0.0 0.0
A 281.357 164.5 0.247547 0.0 0.0 0.0
A 286.406 168.777 0.247547 0.0 0.0 0.0
A 285.658 186.862 0.247547 0.0 0.0 0.0
A 261.997 201.055 0.247547 0.0 0.0 0.0
A 231.576 186.003 0.247547 0.0 0.0 0.0
A 227.613 149.789 0.247547 0.0 0.0 0.0
A 254.729 127.963 0.247547 0.0 0.0 0.0
A 282.529 137.214 0.247547 0.0 0.0 0.0
A 287.815 157.052 0.247547 0.0 0.0 0.0
A 281.833 164.41 0.247547 0.0 0.0 0.0
A 284.284 166.044 0.247547 0.0 0.0 0.0
A 288.32 180.199 0.247547 0.0 0.0 0.0
A 272.414 199.539 0.247547 0.0 0.0 0.0
A 239.974 196.257 0.247547 0.0 0.0 0.0
A 223.004 163.87 0.247547 0.0 0.0 0.0
A 240.674 131.929 0.247547 0.0 0.0 0.0
A 273.039 129.358 0.247547 0.0 0.0 0.0
A 288.508 148.897 0.247547 0.0 0.0 0.0
A 284.303 162.965 0.247547 0.0 0.0 0.0
A 281.826 164.587 0.247547 0.0 0.0 0.0
A 287.947 171.865 0.247547 0.0 0.0 0.0
A 283.343 192.082 0.247547 0.0 0.0 0.0
A 255.719 203.18 0.247547 0.0 0.0 0.0
A 226.135 183.364 0.247547 0.0 0.0 0.0
A 225.887 145.739 0.247547 0.0 0.0 0.0
A 255.227 125.502 0.247547 0.0 0.0 0.0
A 283.141 136.224 0.247547 0.0 0.0 0.0
A 288.193 156.63 0.247547 0.0 0.0 0.0
A 281.965 164.373 0.247547 0.0 0.0 0.0
A 284.054 165.796 0.247547 0.0 0.0 0.0
A 288.941 179.295 0.247547 0.0 0.0 0.0
A 275.092 199.968 0.247547 0.0 0.0 0.0
A 242.276 200.782 0.247547 0.0 0.0 0.0
A 220.107 170.739 0.247547 0.0 0.0 0.0
A 232.232 134.761 0.247547 0.0 0.0 0.0
A 265.501 124.975 0.247547 0.0 0.0 0.0
A 287.334 142.253 0.247547 0.0 0.0 0.0
A 286.581 160.399 0.247547 0.0 0.0 0.0
A 281.358 164.5 0.247547 0.0 0.0 0.0
A 286.09 167.876 0.247547 0.0 0.0 0.0
A 288.038 185.275 0.247547 0.0 0.0 0.0
A 267.901 203.999 0.247547 0.0 0.0 0.0
A 233.866 197.256 0.247547 0.0 0.0 0.0
A 217.951 162.343 0.247547 0.0 0.0 0.0
B 239.514 127.706 1.45401 0.0 0.0 0.0
B 273.163 126.715 1.45401 0.0 0.0 0.0
B 289.086 147.263 1.45401 0.0 0.0 0.0
B 284.966 162.455 1.45401 0.0 0.0 0.0
B 281.575 164.527 1.45401 0.0 0.0 0.0
B 287.697 170.431 1.45401 0.0 0.0 0.0
B 286.253 190.347 1.45401 0.0 0.0 0.0
B 261.469 206.349 1.45401 0.0 0.0 0.0
B 227.67 193.629 1.45401 0.0 0.0 0.0
B 217.02 155.95 1.45401 0.0 0.0 0.0
B 240.533 125.658 1.45401 0.0 0.0 0.0
B 274.324 126.437 1.45401 0.0 0.0 0.0
B 289.399 147.591 1.45401 0.0 0.0 0.0
B 284.893 162.562 1.45401 0.0 0.0 0.0
B 281.605 164.532 1.45401 0.0 0.0 0.0
B 287.839 170.535 1.45401 0.0 0.0 0.0
B 286.594 190.633 1.45401 0.0 0.0 0.0
B 261.99 207.301 1.45401 0.0 0.0 0.0
B 227.473 195.634 1.45401 0.0 0.0 0.0
B 214.954 158.023 1.45401 0.0 0.0 0.0
B 237.078 125.851 1.45401 0.0 0.0 0.0
B 271.779 124.247 1.45401 0.0 0.0 0.0
B 289.253 145.022 1.45401 0.0 0.0 0.0
B 285.81 161.659 1.45401 0.0 0.0 0.0
B 281.392 164.502 1.45401 0.0 0.0 0.0
B 287.061 168.994 1.45401 0.0 0.0 0.0
B 288.271 187.844 1.45401 0.0 0.0 0.0
B 266.887 207.166 1.45401 0.0 0.0 0.0
B 231.388 200.9 1.45401 0.0 0.0 0.0
B 212.827 165.602 1.45401 0.0 0.0 0.0
B 229.433 129.229 1.45401 0.0 0.0 0.0
B 264.839 120.894 1.45401 0.0 0.0 0.0
B 287.766 139.306 1.45401 0.0 0.0 0.0
B 287.7 159.033 1.45401 0.0 0.0 0.0
B 281.526 164.482 1.45401 0.0 0.0 0.0
B 285.188 166.638 1.45401 0.0 0.0 0.0
B 289.931 182.076 1.45401 0.0 0.0 0.0
B 275.192 204.296 1.45401 0.0 0.0 0.0
B 240.584 207.348 1.45401 0.0 0.0 0.0
B 213.334 178.572 1.45401 0.0 0.0 0.0
B 219.173 138.099 1.45401 0.0 0.0 0.0
B 252.403 118.778 1.45401 0.0 0.0 0.0
B 282.698 130.593 1.45401 0.0 0.0 0.0
B 289.852 153.156 1.45401 0.0 0.0 0.0
B 283.11 163.907 1.45401 0.0 0.0 0.0
B 282.656 164.872 1.45401 0.0 0.0 0.0
B 289.584 174.43 1.45401 0.0 0.0 0.0
B 284.321 196.839 1.45401 0.0 0.0 0.0
B 255.423 211.028 1.45401 0.0 0.0 0.0
B 220.485 194.892 1.45401 0.0 0.0 0.0
B 210.362 154.821 1.45401 0.0 0.0 0.0
B 234.652 122.418 1.45401 0.0 0.0 0.0
B 270.711 121.039 1.45401 0.0 0.0 0.0
B 289.582 142.399 1.45401 0.0 0.0 0.0
B 286.828 160.603 1.45401 0.0 0.0 0.0
B 281.36 164.5 1.45401 0.0 0.0 0.0
B 286.225 167.636 1.45401 0.0 0.0 0.0
B 290.079 184.846 1.45401 0.0 0.0 0.0
B 273.223 207.212 1.45401 0.0 0.0 0.0
B 237.333 208.936 1.45401 0.0 0.0 0.0
B 290.578 154.115 1.03034 0.0 0.0 0.0
B 287.113 130.612 1.03034 0.0 0.0 0.0
B 259.713 111.875 1.03034 0.0 0.0 0.0
B 220.709 121.056 1.03034 0.0 0.0 0.0
B 199.443 159.408 1.03034 0.0 0.0 0.0
B 213.69 201.286 1.03034 0.0 0.0 0.0
B 251.466 217.65 1.03034 0.0 0.0 0.0
B 283.25 203.301 1.03034 0.0 0.0 0.0
B 291.323 178.752 1.03034 0.0 0.0 0.0
B 284.283 165.733 1.03034 0.0 0.0 0.0
B 281.892 164.41 1.03034 0.0 0.0 0.0
B 289.02 157.665 1.03034 0.0 0.0 0.0
B 289.427 136.32 1.03034 0.0 0.0 0.0
B 266.792 114.84 1.03034 0.0 0.0 0.0
B 228.312 117.907 1.03034 0.0 0.0 0.0
B 202.328 152.118 1.03034 0.0 0.0 0.0
B 210.763 195.22 1.03034 0.0 0.0 0.0
B 246.371 216.308 1.03034 0.0 0.0 0.0
B 280.247 205.565 1.03034 0.0 0.0 0.0
B 291.324 181.113 1.03034 0.0 0.0 0.0
B 285.09 166.362 1.03034 0.0 0.0 0.0
B 281.575 164.476 1.03034 0.0 0.0 0.0
B 288.158 159.041 1.03034 0.0 0.0 0.0
B 289.965 138.951 1.03034 0.0 0.0 0.0
B 269.426 116.829 1.03034 0.0 0.0 0.0
B 231.663 117.761 1.03034 0.0 0.0 0.0
B 204.54 150.253 1.03034 0.0 0.0 0.0
B 211.299 193.18 1.03034 0.0 0.0 0.0
B 246.022 215.086 1.03034 0.0 0.0 0.0
B 279.868 205.061 1.03034 0.0 0.0 0.0
B 291.115 180.895 1.03034 0.0 0.0 0.0
B 284.974 166.292 1.03034 0.0 0.0 0.0
B 281.608 164.47 1.03034 0.0 0.0 0.0
B 288.216 158.822 1.03034 0.0 0.0 0.0
B 289.479 138.575 1.03034 0.0 0.0 0.0
B 268.121 117.202 1.03034 0.0 0.0 0.0
B 230.552 119.866 1.03034 0.0 0.0 0.0
B 205.457 153.561 1.03034 0.0 0.0 0.0
B 214.855 195.415 1.03034 0.0 0.0 0.0
B 250.358 214.301 1.03034 0.0 0.0 0.0
B 282.206 201.915 1.03034 0.0 0.0 0.0
B 290.733 178.128 1.03034 0.0 0.0 0.0
B 283.963 165.565 1.03034 0.0 0.0 0.0
B 282.053 164.362 1.03034 0.0 0.0 0.0
B 289.114 156.878 1.03034 0.0 0.0 0.0
B 287.65 135.241 1.03034 0.0 0.0 0.0
B 262.658 116.461 1.03034 0.0 0.0 0.0
B 225.387 124.888 1.03034 0.0 0.0 0.0
B 206.063 162.121 1.03034 0.0 0.0 0.0
B 222.161 201.067 1.03034 0.0 0.0 0.0
B 259.081 212.829 1.03034 0.0 0.0 0.0
B 286.223 195.799 1.03034 0.0 0.0 0.0
B 289.542 173.448 1.03034 0.0 0.0 0.0
B 282.405 164.76 1.03034 0.0 0.0 0.0
B 283.425 163.752 1.03034 0.0 0.0 0.0
B 290.301 152.375 1.03034 0.0 0.0 0.0
B 282.994 129.226 1.03034 0.0 0.0 0.0
B 252.359 116.51 1.03034 0.0 0.0 0.0
B 217.653 134.769 1.03034 0.0 0.0 0.0
B 209.067 175.765 1.03034 0.0 0.0 0.0
A 284.454 165.757 1.31389 0.0 0.0 0.0
A 281.828 164.43 1.31389 0.0 0.0 0.0
A 289.183 158.215 1.31389 0.0 0.0 0.0
A 291.791 137.05 1.31389 0.0 0.0 0.0
A 272.466 112.139 1.31389 0.0 0.0 0.0
A 233.229 107.375 1.31389 0.0 0.0 0.0
A 198.21 135.245 1.31389 0.0 0.0 0.0
A 193.331 181.837 1.31389 0.0 0.0 0.0
A 222.385 217.027 1.31389 0.0 0.0 0.0
A 263.421 220.586 1.31389 0.0 0.0 0.0
A 289.154 198.644 1.31389 0.0 0.0 0.0
A 291.002 174.671 1.31389 0.0 0.0 0.0
A 282.993 164.966 1.31389 0.0 0.0 0.0
A 282.794 164.118 1.31389 0.0 0.0 0.0
A 290.743 154.932 1.31389 0.0 0.0 0.0
A 289.448 131.394 1.31389 0.0 0.0 0.0
A 264.479 109.337 1.31389 0.0 0.0 0.0
A 223.91 112.384 1.31389 0.0 0.0 0.0
A 195.001 147.063 1.31389 0.0 0.0 0.0
A 199.952 193.181 1.31389 0.0 0.0 0.0
A 234.883 220.395 1.31389 0.0 0.0 0.0
A 273.481 214.977 1.31389 0.0 0.0 0.0
A 291.711 190.091 1.31389 0.0 0.0 0.0
A 288.454 169.859 1.31389 0.0 0.0 0.0
A 281.596 164.526 1.31389 0.0 0.0 0.0
A 285.059 162.778 1.31389 0.0 0.0 0.0
A 292.165 148.52 1.31389 0.0 0.0 0.0
A 283.563 123.067 1.31389 0.0 0.0 0.0
A 251.163 107.727 1.31389 0.0 0.0 0.0
A 211.72 122.802 1.31389 0.0 0.0 0.0
A 194.131 164.797 1.31389 0.0 0.0 0.0
A 212.397 206.476 1.31389 0.0 0.0 0.0
A 252.007 220.854 1.31389 0.0 0.0 0.0
A 283.959 205.018 1.31389 0.0 0.0 0.0
A 291.954 179.7 1.31389 0.0 0.0 0.0
A 284.729 165.994 1.31389 0.0 0.0 0.0
A 281.708 164.453 1.31389 0.0 0.0 0.0
A 288.737 158.58 1.31389 0.0 0.0 0.0
A 291.024 137.873 1.31389 0.0 0.0 0.0
A 271.201 114.089 1.31389 0.0 0.0 0.0
A 232.48 111.652 1.31389 0.0 0.0 0.0
A 200.563 141.586 1.31389 0.0 0.0 0.0
A 200.562 187.052 1.31389 0.0 0.0 0.0
A 232.498 216.992 1.31389 0.0 0.0 0.0
A 271.214 214.516 1.31389 0.0 0.0 0.0
A 290.928 190.731 1.31389 0.0 0.0 0.0
A 288.542 170.2 1.31389 0.0 0.0 0.0
A 281.648 164.536 1.31389 0.0 0.0 0.0
A 284.882 162.87 1.31389 0.0 0.0 0.0
A 291.78 148.804 1.31389 0.0 0.0 0.0
A 282.735 123.828 1.31389 0.0 0.0 0.0
A 250.149 109.871 1.31389 0.0 0.0 0.0
A 212.091 126.806 1.31389 0.0 0.0 0.0
A 197.734 169.149 1.31389 0.0 0.0 0.0
A 218.961 208.104 1.31389 0.0 0.0 0.0
A 258.356 218.009 1.31389 0.0 0.0 0.0
A 286.636 199.572 1.31389 0.0 0.0 0.0
A 290.834 175.634 1.31389 0.0 0.0 0.0
A 283.221 165.097 1.31389 0.0 0.0 0.0
A 282.581 164.188 1.31389 0.0 0.0 0.0
A 292.507 180.089 2.86761 0.0 0.0 0.0
A 285.173 206.049 2.86761 0.0 0.0 0.0
A 253.619 223.824 2.86761 0.0 0.0 0.0
A 212.276 212.256 2.86761 0.0 0.0 0.0
A 189.463 171.563 2.86761 0.0 0.0 0.0
A 202.32 126.219 2.86761 0.0 0.0 0.0
A 241.078 104.656 2.86761 0.0 0.0 0.0
A 278.124 115.216 2.86761 0.0 0.0 0.0
A 292.818 141.424 2.86761 0.0 0.0 0.0
A 287.77 160.262 2.86761 0.0 0.0 0.0
A 281.427 164.496 2.86761 0.0 0.0 0.0
A 285.821 166.758 2.86761 0.0 0.0 0.0
A 292.928 182.242 2.86761 0.0 0.0 0.0
A 283.723 208.716 2.86761 0.0 0.0 0.0
A 250.476 225.2 2.86761 0.0 0.0 0.0
A 209.022 211.526 2.86761 0.0 0.0 0.0
A 187.551 169.49 2.86761 0.0 0.0 0.0
A 201.958 124.19 2.86761 0.0 0.0 0.0
A 241.49 103.449 2.86761 0.0 0.0 0.0
A 278.548 114.715 2.86761 0.0 0.0 0.0
A 293.047 141.218 2.86761 0.0 0.0 0.0
A 287.894 160.176 2.86761 0.0 0.0 0.0
A 281.443 164.494 2.86761 0.0 0.0 0.0
A 285.737 166.661 2.86761 0.0 0.0 0.0
A 293.077 181.91 2.86761 0.0 0.0 0.0
A 284.568 208.545 2.86761 0.0 0.0 0.0
A 251.854 226.106 2.86761 0.0 0.0 0.0
A 209.751 214.031 2.86761 0.0 0.0 0.0
A 186.199 172.751 2.86761 0.0 0.0 0.0
A 198.314 126.235 2.86761 0.0 0.0 0.0
A 237.183 102.769 2.86761 0.0 0.0 0.0
A 275.873 111.766 2.86761 0.0 0.0 0.0
A 292.918 138.149 2.86761 0.0 0.0 0.0
A 289.005 158.797 2.86761 0.0 0.0 0.0
A 281.717 164.454 2.86761 0.0 0.0 0.0
A 284.741 165.902 2.86761 0.0 0.0 0.0
A 292.805 179.17 2.86761 0.0 0.0 0.0
A 287.432 205.391 2.86761 0.0 0.0 0.0
A 257.661 226.072 2.86761 0.0 0.0 0.0
A 214.862 219.258 2.86761 0.0 0.0 0.0
A 186.203 181.3 2.86761 0.0 0.0 0.0
A 192.019 132.995 2.86761 0.0 0.0 0.0
A 228.08 103.552 2.86761 0.0 0.0 0.0
A 269.359 106.885 2.86761 0.0 0.0 0.0
A 291.684 131.964 2.86761 0.0 0.0 0.0
A 290.989 155.504 2.86761 0.0 0.0 0.0
A 282.705 164.17 2.86761 0.0 0.0 0.0
A 283.1 164.99 2.86761 0.0 0.0 0.0
A 291.527 174.649 2.86761 0.0 0.0 0.0
A 291.121 199.017 2.86761 0.0 0.0 0.0
A 267.199 223.685 2.86761 0.0 0.0 0.0
A 225.115 225.487 2.86761 0.0 0.0 0.0
A 189.566 194.516 2.86761 0.0 0.0 0.0
A 184.949 145.618 2.86761 0.0 0.0 0.0
A 214.541 107.936 2.86761 0.0 0.0 0.0
A 257.709 101.59 2.86761 0.0 0.0 0.0
A 287.642 122.573 2.86761 0.0 0.0 0.0
A 293.202 149.135 2.86761 0.0 0.0 0.0
A 285.079 162.897 2.86761 0.0 0.0 0.0
A 281.605 164.526 2.86761 0.0 0.0 0.0
B 287.151 117.44 2.0211 0.0 0.0 0.0
B 255.187 96.0966 2.0211 0.0 0.0 0.0
B 210.124 102.38 2.0211 0.0 0.0 0.0
B 177.862 140.415 2.0211 0.0 0.0 0.0
B 179.195 191.697 2.0211 0.0 0.0 0.0
B 213.257 227.854 2.0211 0.0 0.0 0.0
B 258.176 231.725 2.0211 0.0 0.0 0.0
B 288.444 209.085 2.0211 0.0 0.0 0.0
B 294.151 181.414 2.0211 0.0 0.0 0.0
B 285.818 166.563 2.0211 0.0 0.0 0.0
B 281.44 164.495 2.0211 0.0 0.0 0.0
B 288.034 160.41 2.0211 0.0 0.0 0.0
B 294.656 141.81 2.0211 0.0 0.0 0.0
B 283.331 113.435 2.0211 0.0 0.0 0.0
B 247.928 95.8601 2.0211 0.0 0.0 0.0
B 203.502 108.281 2.0211 0.0 0.0 0.0
B 176.816 150.523 2.0211 0.0 0.0 0.0
B 185.503 200.569 2.0211 0.0 0.0 0.0
B 223.752 230.474 2.0211 0.0 0.0 0.0
B 267.006 227.385 2.0211 0.0 0.0 0.0
B 291.646 201.771 2.0211 0.0 0.0 0.0
B 292.577 176.227 2.0211 0.0 0.0 0.0
B 283.777 165.285 2.0211 0.0 0.0 0.0
B 282.202 164.343 2.0211 0.0 0.0 0.0
B 290.363 157.256 2.0211 0.0 0.0 0.0
B 293.784 134.963 2.0211 0.0 0.0 0.0
B 275.781 107.396 2.0211 0.0 0.0 0.0
B 235.829 96.9826 2.0211 0.0 0.0 0.0
B 194.125 118.949 2.0211 0.0 0.0 0.0
B 177.174 166.1 2.0211 0.0 0.0 0.0
B 196.473 212.235 2.0211 0.0 0.0 0.0
B 238.977 231.905 2.0211 0.0 0.0 0.0
B 277.842 219.582 2.0211 0.0 0.0 0.0
B 293.982 191.732 2.0211 0.0 0.0 0.0
B 289.533 170.57 2.0211 0.0 0.0 0.0
B 281.848 164.57 2.0211 0.0 0.0 0.0
B 284.435 163.341 2.0211 0.0 0.0 0.0
B 293.023 150.983 2.0211 0.0 0.0 0.0
B 289.927 124.798 2.0211 0.0 0.0 0.0
B 262.664 101.215 2.0211 0.0 0.0 0.0
B 219.189 102.578 2.0211 0.0 0.0 0.0
B 184.809 136.433 2.0211 0.0 0.0 0.0
B 182.515 186.389 2.0211 0.0 0.0 0.0
B 213.91 223.55 2.0211 0.0 0.0 0.0
B 257.819 228.945 2.0211 0.0 0.0 0.0
B 287.898 207.306 2.0211 0.0 0.0 0.0
B 293.489 180.337 2.0211 0.0 0.0 0.0
B 285.29 166.232 2.0211 0.0 0.0 0.0
B 281.549 164.482 2.0211 0.0 0.0 0.0
B 288.513 159.684 2.0211 0.0 0.0 0.0
B 293.929 140.064 2.0211 0.0 0.0 0.0
B 279.866 112.468 2.0211 0.0 0.0 0.0
B 242.641 98.8499 2.0211 0.0 0.0 0.0
B 200.467 116.734 2.0211 0.0 0.0 0.0
B 180.601 161.625 2.0211 0.0 0.0 0.0
B 196.888 208.122 2.0211 0.0 0.0 0.0
B 237.96 229.523 2.0211 0.0 0.0 0.0
B 276.873 218.652 2.0211 0.0 0.0 0.0
B 293.488 191.404 2.0211 0.0 0.0 0.0
B 289.303 170.425 2.0211 0.0 0.0 0.0
B 294.364 147.018 2.08372 0.0 0.0 0.0
B 286.084 162.251 2.08372 0.0 0.0 0.0
B 281.401 164.502 2.08372 0.0 0.0 0.0
B 287.782 168.271 2.08372 0.0 0.0 0.0
B 294.902 186.403 2.08372 0.0 0.0 0.0
B 284.794 215.113 2.08372 0.0 0.0 0.0
B 250.258 234.512 2.08372 0.0 0.0 0.0
B 204.836 224.782 2.08372 0.0 0.0 0.0
B 174.8 184.11 2.08372 0.0 0.0 0.0
B 179.336 132.611 2.08372 0.0 0.0 0.0
B 215.471 98.3211 2.08372 0.0 0.0 0.0
B 260.47 96.6924 2.08372 0.0 0.0 0.0
B 289.602 120.501 2.08372 0.0 0.0 0.0
B 294.291 148.14 2.08372 0.0 0.0 0.0
B 285.679 162.577 2.08372 0.0 0.0 0.0
B 281.467 164.508 2.08372 0.0 0.0 0.0
B 288.246 168.711 2.08372 0.0 0.0 0.0
B 295.141 187.51 2.08372 0.0 0.0 0.0
B 284.347 216.508 2.08372 0.0 0.0 0.0
B 249.166 235.698 2.08372 0.0 0.0 0.0
B 203.393 225.558 2.08372 0.0 0.0 0.0
B 173.171 184.509 2.08372 0.0 0.0 0.0
B 177.533 132.573 2.08372 0.0 0.0 0.0
B 213.66 97.6273 2.08372 0.0 0.0 0.0
B 259.122 95.2953 2.08372 0.0 0.0 0.0
B 289.169 118.843 2.08372 0.0 0.0 0.0
B 294.684 146.951 2.08372 0.0 0.0 0.0
B 286.187 162.216 2.08372 0.0 0.0 0.0
B 281.391 164.502 2.08372 0.0 0.0 0.0
B 287.724 168.13 2.08372 0.0 0.0 0.0
B 295.259 186.004 2.08372 0.0 0.0 0.0
B 286.187 215.041 2.08372 0.0 0.0 0.0
B 252.504 236.087 2.08372 0.0 0.0 0.0
B 206.307 228.946 2.08372 0.0 0.0 0.0
B 173.2 190.013 2.08372 0.0 0.0 0.0
B 173.637 137.459 2.08372 0.0 0.0 0.0
B 207.326 99.1406 2.08372 0.0 0.0 0.0
B 253.492 92.7601 2.08372 0.0 0.0 0.0
B 286.72 114.225 2.08372 0.0 0.0 0.0
B 295.364 143.247 2.08372 0.0 0.0 0.0
B 287.68 160.946 2.08372 0.0 0.0 0.0
B 281.386 164.499 2.08372 0.0 0.0 0.0
B 286.25 166.807 2.08372 0.0 0.0 0.0
B 294.893 182.123 2.08372 0.0 0.0 0.0
B 289.722 210.501 2.08372 0.0 0.0 0.0
B 259.963 234.914 2.08372 0.0 0.0 0.0
B 213.996 234.027 2.08372 0.0 0.0 0.0
B 175.974 200.229 2.08372 0.0 0.0 0.0
B 168.777 147.806 2.08372 0.0 0.0 0.0
B 196.889 104.067 2.08372 0.0 0.0 0.0
B 243.021 90.18 2.08372 0.0 0.0 0.0
B 281.187 106.934 2.08372 0.0 0.0 0.0
B 295.59 136.481 2.08372 0.0 0.0 0.0
B 290.228 158.057 2.08372 0.0 0.0 0.0
B 282.035 164.393 2.08372 0.0 0.0 0.0
B 284.08 165.395 2.08372 0.0 0.0 0.0
B 293.365 176.602 2.08372 0.0 0.0 0.0
B 293.602 202.739 2.08372 0.0 0.0 0.0
B 270.559 230.774 2.08372 0.0 0.0 0.0
B 226.862 238.822 2.08372 0.0 0.0 0.0
A 181.403 211.505 2.23539 0.0 0.0 0.0
A 165.345 160.894 2.23539 0.0 0.0 0.0
A 185.719 112.07 2.23539 0.0 0.0 0.0
A 230.046 89.3698 2.23539 0.0 0.0 0.0
A 272.879 99.3088 2.23539 0.0 0.0 0.0
A 294.316 127.895 2.23539 0.0 0.0 0.0
A 293.008 153.398 2.23539 0.0 0.0 0.0
A 283.716 163.789 2.23539 0.0 0.0 0.0
A 282.25 164.661 2.23539 0.0 0.0 0.0
A 290.764 171.593 2.23539 0.0 0.0 0.0
A 295.8 193.906 2.23539 0.0 0.0 0.0
A 280.675 223.842 2.23539 0.0 0.0 0.0
A 241.774 240.659 2.23539 0.0 0.0 0.0
A 194.892 226.738 2.23539 0.0 0.0 0.0
A 165.766 182.747 2.23539 0.0 0.0 0.0
A 171.81 129.346 2.23539 0.0 0.0 0.0
A 209.334 93.6268 2.23539 0.0 0.0 0.0
A 256.307 90.6144 2.23539 0.0 0.0 0.0
A 288.431 114.1 2.23539 0.0 0.0 0.0
A 295.861 143.546 2.23539 0.0 0.0 0.0
A 287.699 161.038 2.23539 0.0 0.0 0.0
A 281.384 164.499 2.23539 0.0 0.0 0.0
A 286.298 166.78 2.23539 0.0 0.0 0.0
A 295.294 181.958 2.23539 0.0 0.0 0.0
A 291.136 210.622 2.23539 0.0 0.0 0.0
A 262.488 236.693 2.23539 0.0 0.0 0.0
A 216.118 238.883 2.23539 0.0 0.0 0.0
A 174.877 207.858 2.23539 0.0 0.0 0.0
A 162.387 155.3 2.23539 0.0 0.0 0.0
A 186.118 107.308 2.23539 0.0 0.0 0.0
A 231.965 86.8671 2.23539 0.0 0.0 0.0
A 274.525 98.7308 2.23539 0.0 0.0 0.0
A 295.032 128.097 2.23539 0.0 0.0 0.0
A 293.115 153.571 2.23539 0.0 0.0 0.0
A 283.696 163.81 2.23539 0.0 0.0 0.0
A 282.266 164.663 2.23539 0.0 0.0 0.0
A 290.87 171.558 2.23539 0.0 0.0 0.0
A 296.299 193.85 2.23539 0.0 0.0 0.0
A 281.925 224.289 2.23539 0.0 0.0 0.0
A 243.465 242.607 2.23539 0.0 0.0 0.0
A 195.629 230.78 2.23539 0.0 0.0 0.0
A 163.737 188.027 2.23539 0.0 0.0 0.0
A 166.293 133.511 2.23539 0.0 0.0 0.0
A 201.767 94.2231 2.23539 0.0 0.0 0.0
A 249.735 87.008 2.23539 0.0 0.0 0.0
A 285.433 108.241 2.23539 0.0 0.0 0.0
A 296.564 138.653 2.23539 0.0 0.0 0.0
A 289.672 159.054 2.23539 0.0 0.0 0.0
A 281.788 164.447 2.23539 0.0 0.0 0.0
A 284.619 165.651 2.23539 0.0 0.0 0.0
A 294.216 177.673 2.23539 0.0 0.0 0.0
A 294.437 204.634 2.23539 0.0 0.0 0.0
A 271.381 233.754 2.23539 0.0 0.0 0.0
A 227.092 243.654 2.23539 0.0 0.0 0.0
A 181.231 220.789 2.23539 0.0 0.0 0.0
A 158.77 171.211 2.23539 0.0 0.0 0.0
A 172.724 118.247 2.23539 0.0 0.0 0.0
A 214.945 87.4338 2.23539 0.0 0.0 0.0
A 261.938 89.8621 2.23539 0.0 0.0 0.0
A 291.245 116.21 2.23539 0.0 0.0 0.0
B 295.706 146.905 1.3793 0.0 0.0 0.0
B 286.471 162.149 1.3793 0.0 0.0 0.0
B 281.37 164.501 1.3793 0.0 0.0 0.0
B 287.583 167.754 1.3793 0.0 0.0 0.0
B 296.315 184.844 1.3793 0.0 0.0 0.0
B 290.432 214.681 1.3793 0.0 0.0 0.0
B 259.822 240.539 1.3793 0.0 0.0 0.0
B 212.175 241.7 1.3793 0.0 0.0 0.0
B 170.265 209.601 1.3793 0.0 0.0 0.0
B 157.204 155.97 1.3793 0.0 0.0 0.0
B 180.504 106.403 1.3793 0.0 0.0 0.0
B 226.832 83.8304 1.3793 0.0 0.0 0.0
B 271.359 93.9653 1.3793 0.0 0.0 0.0
B 294.67 123.298 1.3793 0.0 0.0 0.0
B 294.665 150.654 1.3793 0.0 0.0 0.0
B 284.957 163.175 1.3793 0.0 0.0 0.0
B 281.666 164.532 1.3793 0.0 0.0 0.0
B 289.317 169.42 1.3793 0.0 0.0 0.0
B 296.981 189.138 1.3793 0.0 0.0 0.0
B 287.658 219.936 1.3793 0.0 0.0 0.0
B 253.494 243.616 1.3793 0.0 0.0 0.0
B 204.759 240.366 1.3793 0.0 0.0 0.0
B 165.159 204.201 1.3793 0.0 0.0 0.0
B 156.455 149.197 1.3793 0.0 0.0 0.0
B 183.595 101.445 1.3793 0.0 0.0 0.0
B 231.304 82.3552 1.3793 0.0 0.0 0.0
B 274.648 95.3806 1.3793 0.0 0.0 0.0
B 295.701 125.626 1.3793 0.0 0.0 0.0
B 294.144 152.167 1.3793 0.0 0.0 0.0
B 284.36 163.512 1.3793 0.0 0.0 0.0
B 281.902 164.574 1.3793 0.0 0.0 0.0
B 290.099 170.256 1.3793 0.0 0.0 0.0
B 297.262 191.064 1.3793 0.0 0.0 0.0
B 286.6 222.246 1.3793 0.0 0.0 0.0
B 251.14 245.218 1.3793 0.0 0.0 0.0
B 201.93 240.605 1.3793 0.0 0.0 0.0
B 162.798 203.225 1.3793 0.0 0.0 0.0
B 155.029 147.672 1.3793 0.0 0.0 0.0
B 182.982 99.9993 1.3793 0.0 0.0 0.0
B 231.135 81.2365 1.3793 0.0 0.0 0.0
B 274.672 94.539 1.3793 0.0 0.0 0.0
B 295.865 124.999 1.3793 0.0 0.0 0.0
B 294.402 151.804 1.3793 0.0 0.0 0.0
B 284.537 163.427 1.3793 0.0 0.0 0.0
B 281.825 164.558 1.3793 0.0 0.0 0.0
B 289.896 169.959 1.3793 0.0 0.0 0.0
B 297.435 190.382 1.3793 0.0 0.0 0.0
B 287.665 221.661 1.3793 0.0 0.0 0.0
B 253.02 245.669 1.3793 0.0 0.0 0.0
B 203.66 242.807 1.3793 0.0 0.0 0.0
B 162.944 206.91 1.3793 0.0 0.0 0.0
B 152.659 151.421 1.3793 0.0 0.0 0.0
B 178.507 101.97 1.3793 0.0 0.0 0.0
B 226.272 80.3785 1.3793 0.0 0.0 0.0
B 271.412 91.3904 1.3793 0.0 0.0 0.0
B 295.13 121.374 1.3793 0.0 0.0 0.0
B 295.426 149.495 1.3793 0.0 0.0 0.0
B 285.532 162.862 1.3793 0.0 0.0 0.0
B 281.511 164.511 1.3793 0.0 0.0 0.0
B 288.7 168.65 1.3793 0.0 0.0 0.0
A 274.762 239.137 2.36147 0.0 0.0 0.0
A 296.729 207.441 2.36147 0.0 0.0 0.0
A 295.776 179.199 2.36147 0.0 0.0 0.0
A 285.523 166.082 2.36147 0.0 0.0 0.0
A 281.518 164.488 2.36147 0.0 0.0 0.0
A 288.786 160.412 2.36147 0.0 0.0 0.0
A 297.883 142.07 2.36147 0.0 0.0 0.0
A 292.336 110.897 2.36147 0.0 0.0 0.0
A 262.094 82.6628 2.36147 0.0 0.0 0.0
A 213.211 77.5173 2.36147 0.0 0.0 0.0
A 166.416 105.73 2.36147 0.0 0.0 0.0
A 145.046 159.198 2.36147 0.0 0.0 0.0
A 160.36 214.956 2.36147 0.0 0.0 0.0
A 204.275 248.653 2.36147 0.0 0.0 0.0
A 254.552 248.981 2.36147 0.0 0.0 0.0
A 288.89 223.376 2.36147 0.0 0.0 0.0
A 298.26 191.346 2.36147 0.0 0.0 0.0
A 290.479 170.4 2.36147 0.0 0.0 0.0
A 281.995 164.59 2.36147 0.0 0.0 0.0
A 284.18 163.635 2.36147 0.0 0.0 0.0
A 294.253 152.903 2.36147 0.0 0.0 0.0
A 297.474 126.678 2.36147 0.0 0.0 0.0
A 279.054 94.7323 2.36147 0.0 0.0 0.0
A 237.04 77.0426 2.36147 0.0 0.0 0.0
A 186.547 90.0695 2.36147 0.0 0.0 0.0
A 151.777 134.277 2.36147 0.0 0.0 0.0
A 150.958 191.949 2.36147 0.0 0.0 0.0
A 184.54 237.23 2.36147 0.0 0.0 0.0
A 234.881 251.732 2.36147 0.0 0.0 0.0
A 277.658 235.082 2.36147 0.0 0.0 0.0
A 297.091 203.329 2.36147 0.0 0.0 0.0
A 294.472 176.677 2.36147 0.0 0.0 0.0
A 284.396 165.477 2.36147 0.0 0.0 0.0
A 281.891 164.431 2.36147 0.0 0.0 0.0
A 290.15 158.91 2.36147 0.0 0.0 0.0
A 297.964 138.381 2.36147 0.0 0.0 0.0
A 288.782 106.738 2.36147 0.0 0.0 0.0
A 254.714 81.5783 2.36147 0.0 0.0 0.0
A 204.992 82.4972 2.36147 0.0 0.0 0.0
A 162.235 116.665 2.36147 0.0 0.0 0.0
A 148.641 172.136 2.36147 0.0 0.0 0.0
A 171.582 224.043 2.36147 0.0 0.0 0.0
A 218.713 249.686 2.36147 0.0 0.0 0.0
A 266.087 242.15 2.36147 0.0 0.0 0.0
A 293.562 213.126 2.36147 0.0 0.0 0.0
A 296.721 183.261 2.36147 0.0 0.0 0.0
A 287.14 167.253 2.36147 0.0 0.0 0.0
A 281.35 164.5 2.36147 0.0 0.0 0.0
A 286.992 161.859 2.36147 0.0 0.0 0.0
A 296.59 146.104 2.36147 0.0 0.0 0.0
A 293.641 116.467 2.36147 0.0 0.0 0.0
A 266.471 87.556 2.36147 0.0 0.0 0.0
A 219.422 80.0539 2.36147 0.0 0.0 0.0
A 172.682 105.683 2.36147 0.0 0.0 0.0
A 150.266 157.419 2.36147 0.0 0.0 0.0
A 164.397 212.352 2.36147 0.0 0.0 0.0
A 207.343 245.571 2.36147 0.0 0.0 0.0
A 256.555 245.474 2.36147 0.0 0.0 0.0
A 289.477 219.844 2.36147 0.0 0.0 0.0
A 297.495 188.668 2.36147 0.0 0.0 0.0
A 221.304 258.261 0.891533 0.0 0.0 0.0
A 269.106 246.535 0.891533 0.0 0.0 0.0
A 295.586 215.256 0.891533 0.0 0.0 0.0
A 297.964 184.417 0.891533 0.0 0.0 0.0
A 287.904 167.695 0.891533 0.0 0.0 0.0
A 281.386 164.501 0.891533 0.0 0.0 0.0
A 286.368 162.433 0.891533 0.0 0.0 0.0
A 296.814 148.15 0.891533 0.0 0.0 0.0
A 297.21 118.931 0.891533 0.0 0.0 0.0
A 274.495 86.6811 0.891533 0.0 0.0 0.0
A 229.115 71.2944 0.891533 0.0 0.0 0.0
A 177.355 87.5779 0.891533 0.0 0.0 0.0
A 142.902 134.475 0.891533 0.0 0.0 0.0
A 142.85 194.006 0.891533 0.0 0.0 0.0