# 4496000
#nworms:800
#np:80
1 1 139.615 308.984 2.4 0.263765 -0.10498 0.0
1 2 138.867 308.723 2.3736 -0.0971106 -0.0865065 0.0
1 3 138.157 308.34 2.39509 -0.145925 0.152343 0.0
1 4 137.333 308.288 2.36063 0.351485 -0.305263 0.0
1 5 136.63 307.857 2.39838 0.125932 -0.335592 0.0
1 6 135.794 307.854 2.35019 -0.119597 0.0294834 0.0
1 7 135.067 307.512 2.39952 -0.0829619 0.132055 0.0
1 8 134.324 307.218 2.34165 -0.0808473 -0.0261848 0.0
1 9 133.549 307.006 2.39789 -0.198094 -0.341341 0.0
1 10 132.765 306.85 2.33991 -0.169112 -0.626357 0.0
1 11 131.96 306.795 2.39739 0.452595 0.147158 0.0
1 12 131.174 306.74 2.34036 -0.276198 -0.229267 0.0
1 13 130.358 306.657 2.39878 0.226149 0.0539471 0.0
1 14 129.61 306.388 2.34239 -0.0542658 0.175174 0.0
1 15 128.8 306.26 2.39537 -0.0606175 0.0305813 0.0
1 16 128.082 305.893 2.34474 0.104944 -0.0934704 0.0
1 17 127.364 305.562 2.39777 0.127527 0.524618 0.0
1 18 126.614 305.261 2.34093 0.0387588 0.418155 0.0
1 19 126.019 304.686 2.39749 0.156413 -0.0742072 0.0
1 20 125.177 304.558 2.33853 -0.212276 -0.106176 0.0
1 21 124.549 304.056 2.39808 0.0873955 -0.314566 0.0
1 22 123.875 303.608 2.33912 0.505184 0.436507 0.0
1 23 123.174 303.243 2.39726 0.031461 -0.0116897 0.0
1 24 122.523 302.772 2.34388 -0.00639618 -0.181368 0.0
1 25 121.922 302.241 2.39579 -0.116856 0.180148 0.0
1 26 121.412 301.613 2.34717 0.00409221 0.0914977 0.0
1 27 120.803 301.093 2.39729 0.0514487 -0.29334 0.0
1 28 120.18 300.591 2.35239 0.0252569 0.20974 0.0
1 29 119.684 299.962 2.39854 0.0326444 -0.0461553 0.0
1 30 119.051 299.46 2.34752 -0.00176789 -0.11304 0.0
1 31 118.571 298.803 2.39866 0.0588155 0.228524 0.0
1 32 117.931 298.315 2.34802 0.0180951 0.207981 0.0
1 33 117.209 297.956 2.3995 0.00152933 -0.0823698 0.0
1 34 116.639 297.367 2.3469 0.142294 -0.291105 0.0
1 35 115.864 297.093 2.3969 -0.390796 -0.182034 0.0
1 36 115.318 296.469 2.35066 0.0604969 -0.0638659 0.0
1 37 114.573 296.153 2.39946 -0.192675 -0.184119 0.0
1 38 113.905 295.704 2.35584 0.245191 -0.129169 0.0
1 39 113.251 295.232 2.39923 0.310838 -0.289869 0.0
1 40 112.678 294.672 2.35702 0.00221394 -0.122412 0.0
1 41 112.089 294.135 2.39756 -0.201125 -0.491966 0.0
1 42 111.389 293.725 2.35722 -0.11621 0.0103861 0.0
1 43 110.67 293.373 2.39706 -0.105244 -0.0279513 0.0
1 44 110.04 292.869 2.35759 0.00723208 0.180157 0.0
1 45 109.356 292.462 2.39761 -0.118144 -0.100843 0.0
1 46 108.77 291.905 2.36342 0.0815622 -0.174498 0.0
1 47 108.277 291.273 2.39855 0.284414 -0.0831966 0.0
1 48 107.858 290.592 2.36841 -0.0731758 0.184575 0.0
1 49 107.461 289.907 2.39998 0.225608 0.18127 0.0
1 50 106.915 289.309 2.37263 -0.153747 -0.0384583 0.0
1 51 106.314 288.797 2.4 -0.1048 -0.384011 0.0
1 52 105.7 288.271 2.37729 -0.17255 -0.230673 0.0
1 53 104.982 287.888 2.39915 0.0432041 0.156477 0.0
1 54 104.287 287.517 2.38104 -0.0142835 0.322191 0.0
1 55 103.58 287.116 2.39997 -0.163284 0.356899 0.0
1 56 102.949 286.631 2.38378 0.304636 -0.197979 0.0
1 57 102.321 286.123 2.39944 0.0581435 0.0393247 0.0
1 58 101.684 285.639 2.38494 -0.0511586 -0.210243 0.0
1 59 100.945 285.322 2.39984 -0.134533 -0.350641 0.0
1 60 100.224 284.963 2.3885 -0.165846 0.235731 0.0
1 61 99.5613 284.518 2.4 -0.223439 0.170401 0.0
1 62 98.8803 284.091 2.39175 -0.292886 -0.111971 0.0
1 63 98.0652 283.94 2.39997 0.050584 -0.166662 0.0
1 64 97.4184 283.454 2.39402 -0.0658345 0.114322 0.0
1 65 96.7463 283.018 2.39997 -0.401302 -0.304249 0.0
1 66 96.0238 282.67 2.39607 -0.142386 0.295771 0.0
1 67 95.3111 282.316 2.4 0.0363631 0.0787588 0.0
1 68 94.6776 281.816 2.3976 0.0427764 0.0849222 0.0
1 69 93.9856 281.421 2.39999 -0.21228 -0.233009 0.0
1 70 93.4984 280.732 2.39866 0.188245 -0.1549 0.0
1 71 92.8178 280.32 2.4 -0.273959 0.0104084 0.0
1 72 92.0873 279.975 2.39938 -0.523526 0.194573 0.0
1 73 91.3754 279.619 2.4 -0.0746871 -0.133302 0.0
1 74 90.7516 279.091 2.39979 0.134195 0.126252 0.0
1 75 90.1968 278.525 2.4 0.245846 -0.0107524 0.0
1 76 89.7528 277.851 2.4 0.512754 -0.290578 0.0
1 77 89.023 277.449 2.4 0.211277 -0.0944722 0.0
1 78 88.5351 276.803 2.4 0.198605 -0.505057 0.0
1 79 87.941 276.28 2.4 -0.104096 0.18984 0.0
1 80 87.3162 275.759 2.4 0.427216 0.161532 0.0
2 1 203.475 298.779 1.23529 0.151216 0.316725 0.0
2 2 204.295 298.989 1.2209 0.141439 -0.0954804 0.0
2 3 205.071 298.764 1.22104 0.152543 -0.320969 0.0
2 4 205.881 298.769 1.19833 0.158521 -0.18289 0.0
2 5 206.647 298.504 1.20385 0.182824 -0.139328 0.0
2 6 207.426 298.347 1.16831 0.145956 -0.165733 0.0
2 7 208.206 298.145 1.17751 0.201215 0.005705 0.0
2 8 208.986 298.0 1.13845 0.119094 -0.132345 0.0
2 9 209.776 297.825 1.15498 0.195997 0.283468 0.0
2 10 210.574 297.802 1.12153 0.141426 0.209685 0.0
2 11 211.376 297.935 1.15163 0.173583 0.0343106 0.0
2 12 212.172 297.872 1.12039 0.154405 -0.0609842 0.0
2 13 212.972 297.782 1.16282 0.20934 0.21897 0.0
2 14 213.721 297.468 1.12881 0.196503 0.00179155 0.0
2 15 214.51 297.331 1.17506 0.254969 0.186326 0.0
2 16 215.3 297.196 1.13124 0.191765 -0.171438 0.0
2 17 216.007 296.758 1.18291 0.130642 -0.274037 0.0
2 18 216.815 296.673 1.12967 0.235588 -0.0726424 0.0
2 19 217.571 296.408 1.18264 0.203528 -0.10744 0.0
2 20 218.337 296.174 1.13139 0.0828319 -0.49977 0.0
2 21 219.049 295.791 1.18698 0.148338 -0.202 0.0
2 22 219.84 295.618 1.13887 0.304917 0.20623 0.0
2 23 220.579 295.313 1.2 0.100233 -0.207413 0.0
2 24 221.305 294.97 1.14884 0.12526 -0.105619 0.0
2 25 222.05 294.684 1.20684 0.151978 -0.0515779 0.0
2 26 222.76 294.299 1.15161 0.200479 0.152522 0.0
2 27 223.54 294.104 1.20812 0.0760815 -0.231948 0.0
2 28 224.288 293.816 1.14969 0.129344 -0.022509 0.0
2 29 225.102 293.769 1.20714 0.0707883 -0.255347 0.0
2 30 225.862 293.52 1.14923 0.152823 0.00910529 0.0
2 31 226.653 293.375 1.2069 0.0900988 -0.250768 0.0
2 32 227.417 293.143 1.15115 0.163608 0.0849317 0.0
2 33 228.174 292.874 1.20663 0.253905 0.229526 0.0
2 34 228.861 292.456 1.15188 0.223645 0.264265 0.0
2 35 229.56 292.075 1.20474 0.150946 0.0137822 0.0
2 36 230.278 291.719 1.15279 0.164566 0.232803 0.0
2 37 230.997 291.373 1.20674 0.105372 -0.00051332 0.0
2 38 231.809 291.258 1.15692 0.0748886 -0.0649173 0.0
2 39 232.528 290.904 1.20668 0.00489865 -0.25298 0.0
2 40 233.189 290.445 1.15593 -0.0716893 -0.354239 0.0
2 41 233.751 289.873 1.21058 0.175203 -0.0402867 0.0
2 42 234.364 289.36 1.1585 0.0739247 -0.234903 0.0
2 43 235.037 288.925 1.20938 0.366706 0.214275 0.0
2 44 235.598 288.336 1.15501 0.117312 -0.186935 0.0
2 45 236.309 287.958 1.20295 0.26081 0.0482525 0.0
2 46 236.976 287.516 1.1496 -0.0523968 -0.459262 0.0
2 47 237.705 287.179 1.19412 0.153089 -0.150069 0.0
2 48 238.448 286.882 1.14629 -0.0730395 -0.52569 0.0
2 49 239.13 286.449 1.19319 0.151657 -0.0957393 0.0
2 50 239.866 286.135 1.14446 0.0631999 -0.247372 0.0
2 51 240.648 285.938 1.19984 0.199178 0.00809481 0.0
2 52 241.405 285.695 1.15175 0.168498 0.165945 0.0
2 53 242.158 285.412 1.20777 0.152922 -0.183944 0.0
2 54 242.938 285.235 1.15952 0.0977822 -0.0196079 0.0
2 55 243.73 285.115 1.22137 0.217914 0.0781224 0.0
2 56 244.495 284.872 1.17294 0.0844078 -0.112565 0.0
2 57 245.284 284.74 1.23563 0.149325 -0.145898 0.0
2 58 246.059 284.543 1.18584 0.106156 -0.165919 0.0
2 59 246.857 284.462 1.24101 0.0723035 -0.527176 0.0
2 60 247.617 284.179 1.19812 0.142733 -0.0496494 0.0
2 61 248.415 284.104 1.24766 0.199419 0.0679781 0.0
2 62 249.202 283.948 1.20405 0.109014 -0.448757 0.0
2 63 250.011 284.0 1.23898 0.212226 0.0641547 0.0
2 64 250.802 283.974 1.19228 0.121245 0.331881 0.0
2 65 251.609 283.885 1.22885 0.185498 -0.232376 0.0
2 66 252.402 283.986 1.16837 0.118273 0.234614 0.0
2 67 253.184 284.181 1.20108 0.215553 -0.388256 0.0
2 68 253.986 284.209 1.15301 0.150545 0.183213 0.0
2 69 254.785 284.202 1.1835 0.185074 0.19278 0.0
2 70 255.584 284.167 1.15049 0.146614 -0.0939432 0.0
2 71 256.383 284.159 1.19064 0.187911 0.280822 0.0
2 72 257.173 283.991 1.17184 0.112927 -0.447302 0.0
2 73 257.978 284.042 1.2079 0.152492 0.00435535 0.0
2 74 258.774 283.926 1.18771 0.133894 -0.0693028 0.0
2 75 259.528 283.644 1.21311 0.210346 0.128898 0.0
2 76 260.288 283.409 1.18292 0.0933185 -0.180525 0.0
2 77 261.053 283.169 1.19104 0.214566 0.0253285 0.0
2 78 261.791 282.86 1.168 0.161909 -0.00837628 0.0
2 79 262.505 282.499 1.16485 0.228376 -0.0735093 0.0
2 80 263.203 282.109 1.14812 0.180576 -0.0240314 0.0
3 1 107.181 134.704 1.16124 -0.253501 -0.127059 0.0
3 2 107.096 133.911 1.18145 -0.288477 -0.120177 0.0
3 3 106.898 133.129 1.16253 -0.0515147 -0.0915564 0.0
3 4 106.621 132.382 1.19108 -0.116457 -0.136799 0.0
3 5 106.271 131.656 1.15855 -0.0803362 0.00243305 0.0
3 6 106.065 130.883 1.19797 0.165823 -0.182259 0.0
3 7 105.799 130.128 1.16147 0.146889 -0.109703 0.0
3 8 105.634 129.342 1.20401 0.00344392 -0.095456 0.0
3 9 105.229 128.632 1.16207 0.0481896 -0.097657 0.0
3 10 105.009 127.867 1.20341 0.054881 -0.0971764 0.0
3 11 104.754 127.104 1.15962 0.212051 -0.127269 0.0
3 12 104.682 126.299 1.20378 0.217624 -0.105971 0.0
3 13 104.518 125.519 1.16266 0.25154 -0.126637 0.0
3 14 104.257 124.755 1.20611 -0.246061 0.0590758 0.0
3 15 104.069 123.981 1.16316 0.310407 -0.10264 0.0
3 16 103.875 123.201 1.20719 -0.143983 0.0630793 0.0
3 17 103.62 122.446 1.16244 0.0879135 -0.0270137 0.0
3 18 103.464 121.653 1.2062 0.035442 -0.01273 0.0
3 19 103.039 120.956 1.16317 0.29247 -0.117994 0.0
3 20 102.804 120.195 1.20753 -0.287692 0.101273 0.0
3 21 102.424 119.481 1.16451 -0.0433064 0.00213296 0.0
3 22 102.211 118.709 1.20728 0.0923322 -0.0443905 0.0
3 23 102.021 117.932 1.1606 0.188155 -0.0251092 0.0
3 24 101.994 117.124 1.20563 0.0561859 0.00628655 0.0
3 25 101.72 116.361 1.16192 0.305036 0.0191799 0.0
3 26 101.64 115.564 1.20914 0.284074 -0.0168748 0.0
3 27 101.474 114.781 1.16044 0.158547 0.0382523 0.0
3 28 101.467 113.976 1.20692 0.0365198 0.00301771 0.0
3 29 101.292 113.191 1.15987 -0.208048 0.0736058 0.0
3 30 101.269 112.391 1.20641 -0.332004 0.00703685 0.0
3 31 101.348 111.589 1.16047 0.344185 0.0111361 0.0
3 32 101.156 110.798 1.20631 -0.199583 0.00451773 0.0
3 33 101.169 109.999 1.16152 0.21987 -0.0404249 0.0
3 34 101.065 109.204 1.20723 -0.0746968 0.000649766 0.0
3 35 100.999 108.407 1.16001 -0.0430609 -0.0571414 0.0
3 36 100.936 107.611 1.2094 -0.41386 0.0319939 0.0
3 37 101.059 106.809 1.16154 -0.253445 -0.124905 0.0
3 38 100.985 106.01 1.21133 -0.0613498 -0.00289847 0.0
3 39 100.86 105.221 1.16448 -0.314657 -0.164758 0.0
3 40 100.754 104.427 1.21525 0.0727609 -0.113768 0.0
3 41 100.743 103.625 1.16638 0.277088 -0.201909 0.0
3 42 100.875 102.832 1.22157 -0.304233 -0.166065 0.0
3 43 101.05 102.053 1.17079 -0.301159 -0.308441 0.0
3 44 101.077 101.249 1.22732 -0.22248 -0.16485 0.0
3 45 101.239 100.463 1.17397 -0.105297 -0.213907 0.0
3 46 101.242 99.6614 1.22973 0.0191206 -0.13764 0.0
3 47 101.328 98.8648 1.1763 -0.0789232 -0.0895236 0.0
3 48 101.409 98.0728 1.23874 0.0571062 -0.0695905 0.0
3 49 101.274 97.2655 1.18291 0.0474948 -0.044058 0.0
3 50 101.388 96.4713 1.24403 0.0217202 0.0213096 0.0
3 51 101.658 95.7123 1.18269 -0.0946159 -0.0924361 0.0
3 52 101.805 94.9264 1.24298 -0.123345 0.00108408 0.0
3 53 101.953 94.1434 1.18388 0.271641 -0.0816608 0.0
3 54 101.87 93.3252 1.24287 0.314461 -0.0113541 0.0
3 55 102.105 92.5551 1.18516 0.00419465 -0.173455 0.0
3 56 102.202 91.7566 1.24632 -0.302446 -0.214928 0.0
3 57 102.547 91.0222 1.18809 0.0891412 -0.215191 0.0
3 58 102.788 90.2618 1.25064 -0.0262579 -0.127927 0.0
3 59 102.849 89.4522 1.19017 -0.10592 -0.251725 0.0
3 60 102.964 88.6682 1.24849 -0.0444324 -0.179426 0.0
3 61 103.091 87.8721 1.19035 -0.0448196 -0.24994 0.0
3 62 103.314 87.1047 1.24616 -0.15098 -0.195991 0.0
3 63 103.639 86.3675 1.19008 0.191113 -0.119087 0.0
3 64 104.046 85.683 1.24413 0.0936924 -0.0404007 0.0
3 65 104.296 84.9088 1.18961 0.109025 -0.070525 0.0
3 66 104.739 84.2415 1.24403 -0.00243252 -0.02949 0.0
3 67 105.231 83.613 1.18526 -0.0197212 -0.0124211 0.0
3 68 105.704 82.9665 1.2379 0.074342 0.0849025 0.0
3 69 106.348 82.4724 1.18176 -0.150045 -0.0935029 0.0
3 70 106.88 81.8834 1.23343 0.220532 0.236756 0.0
3 71 107.486 81.3505 1.18207 0.135185 0.172328 0.0
3 72 107.868 80.6282 1.23163 0.146975 0.137838 0.0
3 73 108.393 80.0328 1.18112 0.00855764 0.0270873 0.0
3 74 108.942 79.4457 1.22668 -0.239017 -0.284946 0.0
3 75 109.514 78.8925 1.18069 0.211607 0.0868324 0.0
3 76 110.051 78.2928 1.22804 0.119349 -0.0499884 0.0
3 77 110.609 77.728 1.19192 -0.0129955 -0.206659 0.0
3 78 111.252 77.2331 1.22846 0.267845 0.0602878 0.0
3 79 111.807 76.6709 1.21309 -0.0388357 -0.347173 0.0
3 80 112.552 76.2997 1.23645 0.156773 -0.1757 0.0
4 1 104.448 109.628 0.0325816 -0.0371908 -0.197345 0.0
4 2 104.602 108.838 0.0127131 0.145719 -0.0632266 0.0
4 3 104.558 108.032 0.0339244 -0.126556 -0.15549 0.0
4 4 104.626 107.236 0.00290083 0.0557291 0.0249548 0.0
4 5 104.924 106.474 0.041575 0.0417829 -0.133263 0.0
4 6 104.978 105.673 0.00188808 -0.183159 -0.0121948 0.0
4 7 104.987 104.874 0.0502498 -0.0961092 -0.0283024 0.0
4 8 104.856 104.078 0.000551236 -0.217993 0.0687569 0.0
4 9 104.858 103.28 0.0541272 0.228747 -0.0245977 0.0
4 10 104.852 102.478 0.00147947 0.064922 0.137361 0.0
4 11 105.003 101.686 0.0561129 -0.0661816 -0.0274509 0.0
4 12 105.248 100.925 0.00223475 0.029303 -0.0379264 0.0
4 13 105.638 100.219 0.0533318 -0.117904 -0.0511979 0.0
4 14 105.771 99.409 8.92779e-05 -0.0774234 -0.0268964 0.0
4 15 106.147 98.7002 0.0518112 0.148375 0.0369592 0.0
4 16 106.551 98.0088 0.0 -0.0236354 -0.00580268 0.0
4 17 106.998 97.3445 0.0509018 0.160049 0.0119529 0.0
4 18 107.498 96.716 0.000587395 -0.557413 -0.41913 0.0
4 19 107.984 96.0817 0.0539298 0.113781 0.0672054 0.0
4 20 108.35 95.3603 0.0 -0.126867 -0.0901696 0.0
4 21 108.862 94.7382 0.0550356 0.16316 0.119386 0.0
4 22 109.525 94.2694 0.00073391 0.0487448 0.108157 0.0
4 23 110.238 93.911 0.0575303 0.0847518 0.0425654 0.0
4 24 111.028 93.719 0.0056244 0.0563825 0.170321 0.0
4 25 111.743 93.3648 0.0593968 -0.00357945 -0.176128 0.0
4 26 112.508 93.1131 0.00425698 -0.0529826 -0.29535 0.0
4 27 113.251 92.83 0.0589678 0.0775118 0.103754 0.0
4 28 113.981 92.4865 0.00508513 0.0267335 -0.0094488 0.0
4 29 114.658 92.0665 0.0598873 0.0727105 0.180392 0.0
4 30 115.394 91.7318 0.00325832 0.000289922 -0.0311107 0.0
4 31 115.867 91.0137 0.0571941 0.0443 0.0547138 0.0
4 32 116.626 90.7061 0.00412787 -0.16519 -0.300449 0.0
4 33 117.278 90.2499 0.060452 -0.210692 -0.254372 0.0
4 34 117.931 89.7781 0.00182767 -0.25292 -0.354845 0.0
4 35 118.641 89.4109 0.0585565 -0.186345 -0.349256 0.0
4 36 119.334 89.0021 0.000922089 -0.155864 -0.182549 0.0
4 37 120.086 88.7244 0.0630622 -0.114695 -0.00448082 0.0
4 38 120.804 88.3618 0.0056676 -0.0465465 0.255689 0.0
4 39 121.57 88.1247 0.0659746 -0.0415358 -0.00485613 0.0
4 40 122.362 87.9997 0.00202238 -0.0154087 -0.0447419 0.0
4 41 123.161 87.9529 0.0695003 -0.00969316 0.0804481 0.0
4 42 123.958 87.9139 0.00214448 -0.00842028 0.299927 0.0
4 43 124.758 87.892 0.0752237 -0.00601738 0.237976 0.0
4 44 125.538 87.6865 0.000414785 0.0381227 0.214282 0.0
4 45 126.335 87.6303 0.0766514 0.0894001 0.229815 0.0
4 46 127.134 87.6491 0.000816294 0.0491373 0.274534 0.0
4 47 127.928 87.4887 0.0738028 0.0913294 -0.0980082 0.0
4 48 128.731 87.5945 0.0015834 0.0722619 -0.218411 0.0
4 49 129.527 87.5531 0.0765576 0.0842899 0.0181695 0.0
4 50 130.325 87.4709 0.000714123 0.0479262 -0.182501 0.0
4 51 131.119 87.4043 0.0745112 0.182446 0.409129 0.0
4 52 131.909 87.2305 0.000552353 0.0320292 -0.0224963 0.0
4 53 132.711 87.2355 0.075813 0.0196568 0.190244 0.0
4 54 133.513 87.1921 0.0020836 0.0159323 0.0515545 0.0
4 55 134.288 86.9714 0.0716059 0.0116299 -0.0496852 0.0
4 56 135.071 86.8094 0.00183875 0.114348 0.22508 0.0
4 57 135.86 86.6779 0.0673087 -0.0683889 -0.222183 0.0
4 58 136.67 86.727 0.00159642 0.0862233 0.172912 0.0
4 59 137.452 86.5386 0.0657624 0.0486161 0.269357 0.0
4 60 138.252 86.4709 0.00429446 0.0776436 0.00861818 0.0
4 61 139.031 86.3093 0.0660747 0.219328 0.0609669 0.0
4 62 139.793 86.0271 0.00323164 0.198681 0.582794 0.0
4 63 140.596 85.9789 0.0663482 0.200732 0.0311864 0.0
4 64 141.392 85.937 0.00388415 0.17778 -0.0440146 0.0
4 65 142.188 85.82 0.0641232 0.133979 0.417344 0.0
4 66 142.981 85.7389 0.00626674 0.100374 0.0371119 0.0
4 67 143.784 85.7184 0.0579906 0.0881896 0.04708 0.0
4 68 144.579 85.6899 0.000676979 0.0380044 -0.0543734 0.0
4 69 145.384 85.7233 0.0534729 0.0600813 0.0875194 0.0
4 70 146.169 85.8585 0.00243885 0.0812718 -0.434637 0.0
4 71 146.954 86.0426 0.0506616 0.0275072 0.117356 0.0
4 72 147.754 86.0517 0.000292258 0.0174368 -0.21784 0.0
4 73 148.552 86.1345 0.0465274 0.0344499 0.14919 0.0
4 74 149.349 85.9657 0.00161032 0.058958 0.0343579 0.0
4 75 150.139 85.936 0.0430924 -0.0117564 -0.192201 0.0
4 76 150.94 85.7943 0.00437856 -0.0120283 -0.45829 0.0
4 77 151.736 85.8564 0.0385458 -0.0361685 0.310829 0.0
4 78 152.526 86.023 0.00813485 0.0243238 0.286205 0.0
4 79 153.306 86.1523 0.0242116 0.073465 -0.406225 0.0
4 80 154.097 86.3311 0.0017884 0.0284575 -0.0341808 0.0
5 1 298.386 100.062 1.24827 0.0252354 0.145926 0.0
5 2 298.189 100.836 1.25732 -0.227392 0.0858345 0.0
5 3 297.988 101.612 1.23312 0.0721232 0.172652 0.0
5 4 297.781 102.385 1.25534 0.125322 0.16176 0.0
5 5 297.366 103.088 1.21317 -0.0735002 0.0948133 0.0
5 6 297.15 103.858 1.24813 -0.182502 0.0417508 0.0
5 7 296.94 104.632 1.19598 -0.0133563 0.0920237 0.0
5 8 296.998 105.451 1.23847 -0.105384 0.0854061 0.0
5 9 296.764 106.222 1.18058 0.280919 0.12898 0.0
5 10 296.687 107.02 1.22841 -0.0195862 0.135807 0.0
5 11 296.717 107.819 1.16891 0.145103 0.149265 0.0
5 12 296.63 108.619 1.2178 0.22197 0.115349 0.0
5 13 296.692 109.416 1.15959 -0.228155 0.127265 0.0
5 14 296.767 110.211 1.21259 0.0542902 0.0529822 0.0
5 15 296.719 111.017 1.15382 -0.0529929 0.0607693 0.0
5 16 296.924 111.8 1.20657 0.387442 -0.0796369 0.0
5 17 296.964 112.599 1.15142 -0.459207 0.0364924 0.0
5 18 297.238 113.365 1.20687 0.100407 -0.0759019 0.0
5 19 297.238 114.176 1.1574 0.168758 -0.109893 0.0
5 20 297.487 114.945 1.21139 0.0455167 -0.0844839 0.0
5 21 297.57 115.742 1.15647 -0.0132609 -0.0546086 0.0
5 22 297.605 116.542 1.21075 0.000593791 -0.0379915 0.0
5 23 297.584 117.344 1.15936 -0.017388 -0.00739134 0.0
5 24 297.484 118.138 1.21068 0.0689728 0.0321376 0.0
5 25 297.648 118.944 1.16396 -0.39589 0.0509191 0.0
5 26 297.289 119.725 1.21705 0.0799881 0.108856 0.0
5 27 297.517 120.539 1.16522 0.00736697 0.108971 0.0
5 28 297.322 121.324 1.21952 0.102208 0.148148 0.0
5 29 297.272 122.12 1.168 -0.263837 0.0783493 0.0
5 30 297.202 122.922 1.22496 -0.04961 0.128814 0.0
5 31 296.973 123.691 1.17369 -0.287701 0.105015 0.0
5 32 296.747 124.457 1.22929 -0.0850271 0.102688 0.0
5 33 296.549 125.233 1.17499 0.229939 0.226525 0.0
5 34 296.529 126.044 1.23014 -0.155791 0.10305 0.0
5 35 296.24 126.803 1.17972 -0.0239675 0.121609 0.0
5 36 296.123 127.591 1.22658 -0.197172 0.0893018 0.0
5 37 295.949 128.379 1.17402 -0.196202 0.0158491 0.0
5 38 295.589 129.102 1.21975 -0.31022 0.025532 0.0
5 39 295.077 129.726 1.16755 0.456187 0.357458 0.0
5 40 294.661 130.41 1.21261 0.109998 0.270519 0.0
5 41 294.445 131.195 1.16641 0.0545384 0.140009 0.0
5 42 294.078 131.905 1.2094 0.0580172 0.232802 0.0
5 43 293.621 132.565 1.16678 -0.35453 -0.147632 0.0
5 44 293.151 133.214 1.21526 -0.00704713 0.140054 0.0
5 45 292.537 133.736 1.17218 -0.177316 -0.0213597 0.0
5 46 292.002 134.329 1.22632 -0.200596 -0.0713327 0.0
5 47 291.369 134.824 1.18873 -0.100053 0.0242687 0.0
5 48 290.824 135.413 1.23696 0.0622246 0.158107 0.0
5 49 290.152 135.857 1.20486 -0.0697726 0.0572103 0.0
5 50 289.576 136.414 1.24077 -0.0029189 0.0845882 0.0
5 51 288.829 136.756 1.21794 -0.237554 -0.113567 0.0
5 52 288.262 137.328 1.24013 -0.150891 -0.035856 0.0
5 53 287.638 137.828 1.22922 -0.0838291 0.139501 0.0
5 54 287.042 138.365 1.22937 -0.286097 -0.0473449 0.0
5 55 286.36 138.796 1.23422 -0.288738 -0.0352928 0.0
5 56 285.718 139.266 1.21835 -0.0611682 0.403806 0.0
5 57 285.095 139.786 1.24108 -0.299776 0.109501 0.0
5 58 284.353 140.102 1.20998 -0.346146 -0.050759 0.0
5 59 283.618 140.417 1.24549 -0.327286 0.144637 0.0
5 60 282.878 140.719 1.20223 -0.322302 0.0101284 0.0
5 61 282.147 141.058 1.24535 -0.258483 0.362414 0.0
5 62 281.36 141.227 1.20156 -0.18355 0.36698 0.0
5 63 280.558 141.265 1.24658 -0.268096 0.137311 0.0
5 64 279.763 141.319 1.2012 -0.175068 0.290178 0.0
5 65 278.963 141.111 1.24657 -0.200339 0.226745 0.0
5 66 278.167 141.265 1.20119 -0.172107 0.0033253 0.0
5 67 277.363 141.202 1.24962 -0.124785 0.469894 0.0
5 68 276.569 141.218 1.19687 -0.165301 -0.10426 0.0
5 69 275.788 141.511 1.24741 -0.113961 0.0775317 0.0
5 70 274.99 141.481 1.1992 -0.155744 -0.328905 0.0
5 71 274.187 141.448 1.24848 -0.0722451 0.113537 0.0
5 72 273.389 141.501 1.20359 -0.120572 -0.270771 0.0
5 73 272.601 141.675 1.25507 -0.0559977 -0.100993 0.0
5 74 271.795 141.644 1.20772 -0.0414478 -0.140038 0.0
5 75 270.999 141.687 1.25157 -0.043885 -0.119553 0.0
5 76 270.209 141.417 1.20687 -0.043391 0.320293 0.0
5 77 269.399 141.642 1.2383 -0.0307783 -0.247084 0.0
5 78 268.608 141.471 1.19937 -0.0124279 -0.0272025 0.0
5 79 267.807 141.487 1.21117 -0.0817896 -0.175591 0.0
5 80 267.011 141.358 1.18213 -0.000938904 -0.160418 0.0
6 1 237.241 107.085 2.3989 -0.187179 0.174807 0.0
6 2 236.479 107.335 2.37624 -0.099794 -0.0220081 0.0
6 3 235.756 107.678 2.39082 -0.196591 -0.0849009 0.0
6 4 234.946 107.795 2.35596 -0.0558438 -0.0551324 0.0
6 5 234.277 108.29 2.39283 -0.0243901 0.0815774 0.0
6 6 233.503 108.494 2.35051 0.0747242 0.0896936 0.0
6 7 232.727 108.689 2.397 0.032471 0.122757 0.0
6 8 231.942 108.853 2.34784 0.0656822 0.00221539 0.0
6 9 231.14 108.905 2.39587 0.0585162 0.18135 0.0
6 10 230.34 108.919 2.34739 0.0725398 0.131948 0.0
6 11 229.537 108.884 2.39719 0.143085 -0.401655 0.0
6 12 228.739 108.848 2.34768 0.135501 -0.349955 0.0
6 13 227.937 108.788 2.39646 0.0908562 0.528693 0.0
6 14 227.14 108.757 2.34704 0.113711 0.106601 0.0
6 15 226.346 108.979 2.39808 0.118112 0.053557 0.0
6 16 225.54 108.837 2.35225 0.17799 0.35585 0.0
6 17 224.749 108.953 2.39731 0.115569 -0.395465 0.0
6 18 223.944 108.966 2.35052 0.116712 0.138843 0.0
6 19 223.156 109.083 2.39816 0.0188467 -0.348177 0.0
6 20 222.379 109.303 2.35154 0.0800677 -0.210571 0.0
6 21 221.571 109.271 2.3997 0.0275328 0.303764 0.0
6 22 220.785 109.436 2.35529 0.138614 0.158571 0.0
6 23 219.978 109.375 2.39719 0.0471906 0.259536 0.0
6 24 219.188 109.506 2.35954 0.0702051 0.0103317 0.0
6 25 218.411 109.702 2.3945 0.0453475 -0.037428 0.0
6 26 217.659 109.977 2.37089 0.0882037 0.168327 0.0
6 27 216.896 110.223 2.39104 0.152737 0.0817548 0.0
6 28 216.101 110.345 2.38319 -0.0455388 -0.356578 0.0
6 29 215.298 110.367 2.38156 0.226755 -0.00774236 0.0
6 30 214.499 110.301 2.39089 -0.00985991 0.0335311 0.0
6 31 213.696 110.321 2.36805 0.134405 0.0481887 0.0
6 32 212.896 110.341 2.39537 0.00360062 -0.280477 0.0
6 33 212.094 110.338 2.35941 0.0533728 -0.0873668 0.0
6 34 211.319 110.039 2.39713 -0.0590904 -0.115747 0.0
6 35 210.513 110.094 2.35816 -0.0192717 -0.0178323 0.0
6 36 209.715 110.059 2.3993 -0.0106121 0.0455767 0.0
6 37 208.922 109.924 2.36048 -0.0215848 0.224786 0.0
6 38 208.115 110.089 2.39901 -0.0425155 0.0809164 0.0
6 39 207.324 109.879 2.36098 -0.0128634 0.10007 0.0
6 40 206.532 109.864 2.39911 -0.011863 -0.269447 0.0
6 41 205.729 109.785 2.36301 -0.0471587 0.116804 0.0
6 42 204.938 109.716 2.39924 -0.045079 -0.223071 0.0
6 43 204.177 109.382 2.356 -0.0938006 0.06369 0.0
6 44 203.369 109.409 2.39663 -0.0742487 -0.150665 0.0
6 45 202.576 109.283 2.34905 -0.105683 -0.0142821 0.0
6 46 201.771 109.336 2.39338 -0.0911264 0.00294528 0.0
6 47 200.982 109.485 2.34754 -0.06592 -0.266434 0.0
6 48 200.263 109.874 2.39441 -0.0370818 -0.070399 0.0
6 49 199.443 109.931 2.34652 0.0136934 -0.114619 0.0
6 50 198.707 110.25 2.39502 0.0172449 -0.0753686 0.0
6 51 197.99 110.608 2.3482 0.346859 0.356654 0.0
6 52 197.26 110.934 2.39145 0.00258032 -0.146233 0.0
6 53 196.457 111.066 2.34569 0.188641 0.0336471 0.0
6 54 195.759 111.488 2.39265 0.0345163 -0.262874 0.0
6 55 194.935 111.557 2.34534 0.159437 0.0392958 0.0
6 56 194.228 111.95 2.3948 0.039616 -0.0998451 0.0
6 57 193.449 112.147 2.34399 0.0829114 -0.102133 0.0
6 58 192.685 112.371 2.39399 -0.0713634 -0.244356 0.0
6 59 191.903 112.556 2.34126 0.159894 0.276929 0.0
6 60 191.131 112.746 2.39587 -0.0077659 -0.145693 0.0
6 61 190.357 112.973 2.34167 0.0135764 -0.0267689 0.0
6 62 189.557 113.028 2.39463 0.0624326 0.314002 0.0
6 63 188.757 113.084 2.34733 0.0483262 -0.110852 0.0
6 64 187.959 113.009 2.39418 0.0468247 0.205821 0.0
6 65 187.157 113.034 2.34654 0.0621962 0.338315 0.0
6 66 186.362 113.101 2.3921 0.0705086 0.568885 0.0
6 67 185.562 113.108 2.34533 0.0692944 0.19651 0.0
6 68 184.761 113.135 2.3924 0.0497171 -0.237263 0.0
6 69 183.987 112.834 2.34666 0.0759223 0.303123 0.0
6 70 183.175 112.943 2.39475 0.066806 -0.0293945 0.0
6 71 182.395 112.703 2.34574 0.137663 -0.334209 0.0
6 72 181.595 112.718 2.39279 0.0734012 -0.248607 0.0
6 73 180.795 112.649 2.34504 0.192483 -0.279835 0.0
6 74 179.998 112.747 2.39372 0.0426793 -0.0592364 0.0
6 75 179.199 112.785 2.34969 0.0565126 -0.457631 0.0
6 76 178.405 112.881 2.38953 0.0889314 0.278683 0.0
6 77 177.624 113.08 2.35631 0.105888 0.121973 0.0
6 78 176.843 113.214 2.38951 0.0400176 -0.217487 0.0
6 79 176.048 113.356 2.37072 0.104353 0.273223 0.0
6 80 175.275 113.524 2.39944 0.0825067 -0.0484693 0.0
7 1 127.418 95.2346 2.39967 -0.023303 0.207557 0.0
7 2 126.64 95.4816 2.37813 0.0589337 0.187483 0.0
7 3 125.827 95.4112 2.39378 -0.0120621 -0.146725 0.0
7 4 125.044 95.6071 2.36187 0.029945 0.151773 0.0
7 5 124.246 95.6807 2.39435 0.0327772 0.436725 0.0
7 6 123.444 95.7286 2.35537 -0.0141833 -0.183554 0.0
7 7 122.658 95.8945 2.39447 -0.0625743 -0.244319 0.0
7 8 121.876 96.0639 2.35069 0.0489721 0.264864 0.0
7 9 121.072 96.1285 2.39318 0.0467739 0.405656 0.0
7 10 120.307 96.3879 2.35224 -0.0110963 0.164215 0.0
7 11 119.522 96.5281 2.39933 -0.0297746 0.104127 0.0
7 12 118.746 96.7387 2.35479 -0.128322 -0.134003 0.0
7 13 117.938 96.7468 2.39829 -0.0293738 0.154233 0.0
7 14 117.147 96.8254 2.3508 -0.0769115 -0.0124383 0.0
7 15 116.339 96.7393 2.39945 -0.0647961 -0.0718844 0.0
7 16 115.559 97.0214 2.34791 -0.0911618 -0.196036 0.0
7 17 114.771 97.0692 2.39803 -0.246406 -0.368932 0.0
7 18 113.958 97.0049 2.34762 -0.0472823 -0.0150132 0.0
7 19 113.178 97.2137 2.3951 -0.158877 0.0903755 0.0
7 20 112.369 97.2047 2.34277 -0.0864677 -0.0473973 0.0
7 21 111.601 97.4648 2.3959 -0.122508 0.335469 0.0
7 22 110.793 97.4872 2.34457 -0.125545 -0.0998538 0.0
7 23 110.018 97.6856 2.39797 -0.108873 0.227399 0.0
7 24 109.258 97.9385 2.33974 0.0463644 0.315871 0.0
7 25 108.471 98.0926 2.39735 -0.0567058 0.196539 0.0
7 26 107.683 98.2039 2.3368 0.0377628 0.362748 0.0
7 27 106.886 98.2969 2.39887 -0.103804 -0.14668 0.0
7 28 106.111 98.4963 2.33745 -0.0342671 0.0218605 0.0
7 29 105.374 98.819 2.39824 -0.0512402 0.0560379 0.0
7 30 104.682 99.2214 2.34108 0.170103 0.219607 0.0
7 31 104.062 99.7332 2.39851 -0.229062 -0.147638 0.0
7 32 103.488 100.288 2.34756 0.0175669 0.100194 0.0
7 33 103.004 100.933 2.39551 -0.193119 -0.171816 0.0
7 34 102.284 101.343 2.34378 -0.0712904 -0.105171 0.0
7 35 101.771 101.954 2.39789 -0.00164291 -0.0432971 0.0
7 36 101.217 102.538 2.34334 0.391675 0.222878 0.0
7 37 100.812 103.235 2.4 -0.16484 -0.193597 0.0
7 38 100.299 103.85 2.34408 0.11351 3.59845e-05 0.0
7 39 99.9159 104.558 2.39896 -0.0318998 0.0295156 0.0
7 40 99.4394 105.203 2.34306 -0.0763527 -0.129514 0.0
7 41 98.8031 105.706 2.39898 -0.031829 0.0069439 0.0
7 42 98.2523 106.279 2.34196 -0.00791752 0.0415132 0.0
7 43 97.7146 106.873 2.39938 0.0132445 0.103873 0.0
7 44 97.1398 107.428 2.34198 -0.169691 0.000198921 0.0
7 45 96.5483 107.966 2.39615 0.0894734 0.192822 0.0
7 46 95.9466 108.493 2.34101 -0.0463448 0.105194 0.0
7 47 95.3064 108.972 2.39478 0.117035 0.163686 0.0
7 48 94.7022 109.5 2.34324 -0.0206365 0.0350633 0.0
7 49 94.0267 109.929 2.39044 0.0633435 0.13631 0.0
7 50 93.3074 110.291 2.34272 -0.0647908 -0.0746293 0.0
7 51 92.7799 110.929 2.38763 -0.0703493 -0.0392644 0.0
7 52 92.0391 111.267 2.34409 -0.0666909 -0.131448 0.0
7 53 91.4342 111.789 2.38822 0.0763586 0.0445058 0.0
7 54 90.7397 112.203 2.34502 0.1396 0.1016 0.0
7 55 90.1761 112.776 2.39008 -0.0424977 -0.0891996 0.0
7 56 89.7042 113.428 2.34517 0.119135 0.00985356 0.0
7 57 89.3363 114.139 2.3896 0.0450664 -0.0150627 0.0
7 58 89.0368 114.882 2.34442 -0.0508454 -0.0375139 0.0
7 59 88.5657 115.539 2.39087 0.34655 0.120998 0.0
7 60 88.4065 116.353 2.34634 0.0451836 0.0637535 0.0
7 61 87.9056 116.997 2.39181 -0.219935 -0.129854 0.0
7 62 87.6373 117.757 2.3473 -0.140958 0.0249843 0.0
7 63 87.183 118.422 2.39421 -0.248566 -0.00716841 0.0
7 64 87.0417 119.246 2.34499 0.184191 0.126905 0.0
7 65 86.6514 119.935 2.39462 -0.0924704 0.045975 0.0
7 66 86.177 120.597 2.34949 0.203079 0.0950542 0.0
7 67 85.9572 121.377 2.3919 -0.162794 0.0338652 0.0
7 68 85.3953 121.997 2.3468 -0.180658 -0.0336472 0.0
7 69 85.1414 122.757 2.39289 -0.0426052 0.121694 0.0
7 70 84.9138 123.528 2.34648 0.0616076 0.109101 0.0
7 71 84.8035 124.323 2.39295 -0.0142701 0.0809581 0.0
7 72 84.6904 125.113 2.34597 0.181926 0.166867 0.0
7 73 84.7794 125.924 2.39361 -0.0232064 0.12136 0.0
7 74 84.56 126.707 2.35173 0.0753283 0.122053 0.0
7 75 84.552 127.509 2.39627 0.0806763 0.0578048 0.0
7 76 84.4034 128.297 2.36106 0.204246 0.0763082 0.0
7 77 84.2869 129.085 2.3995 0.2288 0.0898104 0.0
7 78 84.1498 129.877 2.37104 -0.0418829 0.0984937 0.0
7 79 83.7525 130.594 2.39193 0.123292 -0.00885983 0.0
7 80 83.3618 131.271 2.37636 -0.390165 -0.00880009 0.0
8 1 133.284 90.8369 1.14551 0.0474659 -0.0840657 0.0
8 2 133.987 91.2265 1.17163 0.00886854 0.0228902 0.0
8 3 134.733 91.5162 1.16121 0.104276 -0.200882 0.0
8 4 135.478 91.8071 1.19096 -0.0416651 0.147486 0.0
8 5 136.235 92.0685 1.16758 0.0635219 -0.0802076 0.0
8 6 136.945 92.4448 1.20377 0.0440893 -0.0417395 0.0
8 7 137.683 92.7523 1.17608 -0.0299087 0.117754 0.0
8 8 138.434 93.0298 1.21819 0.0647894 -0.0952097 0.0
8 9 139.145 93.401 1.18747 0.040789 -0.0550056 0.0
8 10 139.925 93.6135 1.23524 0.069258 -0.101515 0.0