# 12000000
#nworms:1000
#np:60
1 1 209.774 77.0837 1.38239 0.0271908 0.0443186 0.0
1 2 210.525 77.3552 1.37062 0.177232 -0.153037 0.0
1 3 211.264 77.6686 1.38646 0.0559738 0.0035951 0.0
1 4 211.966 78.0532 1.36522 0.0906842 0.0144956 0.0
1 5 212.603 78.5443 1.39609 0.117719 -0.0489717 0.0
1 6 213.308 78.9259 1.36767 0.148311 -0.0203185 0.0
1 7 213.981 79.3547 1.40391 0.0700616 -0.00910582 0.0
1 8 214.64 79.8136 1.36931 0.0660726 0.0564995 0.0
1 9 215.35 80.1801 1.40821 0.164351 -0.0653332 0.0
1 10 216.062 80.5483 1.36839 0.14954 -0.0799712 0.0
1 11 216.8 80.8562 1.41097 0.106307 0.091949 0.0
1 12 217.553 81.1291 1.37097 0.0915091 0.0468061 0.0
1 13 218.323 81.3416 1.41478 0.10348 0.0256717 0.0
1 14 219.024 81.7611 1.37287 0.0941658 0.0900315 0.0
1 15 219.827 81.8832 1.41554 0.044509 0.113247 0.0
1 16 220.578 82.1482 1.37465 0.0795272 0.13522 0.0
1 17 221.342 82.395 1.4155 0.0854733 0.0580795 0.0
1 18 222.11 82.6108 1.37352 0.0447269 0.180757 0.0
1 19 222.888 82.8066 1.41268 0.0293748 0.022101 0.0
1 20 223.664 82.9954 1.36987 0.110715 -0.0205567 0.0
1 21 224.393 83.3477 1.40413 -0.0176327 0.156645 0.0
1 22 225.168 83.5417 1.36664 0.0174747 0.18818 0.0
1 23 225.954 83.702 1.39946 0.0737369 -0.020355 0.0
1 24 226.752 83.7721 1.36792 0.0554775 0.0229649 0.0
1 25 227.54 83.9118 1.40443 0.0101045 -0.0203128 0.0
1 26 228.339 83.982 1.37029 0.0286148 -0.0918719 0.0
1 27 229.131 84.0866 1.40782 0.00301207 0.00735688 0.0
1 28 229.93 84.1538 1.37349 0.00530459 0.0200096 0.0
1 29 230.73 84.1502 1.40702 0.0131515 0.0404176 0.0
1 30 231.525 84.2675 1.37583 0.0517602 0.0540589 0.0
1 31 232.329 84.2057 1.40582 0.0417487 0.104268 0.0
1 32 233.124 84.3112 1.37358 0.0907516 -0.0443668 0.0
1 33 233.913 84.4408 1.40546 0.0800379 -0.0996816 0.0
1 34 234.693 84.6244 1.3708 0.0217139 0.0652171 0.0
1 35 235.493 84.6995 1.40587 -0.00555829 0.116983 0.0
1 36 236.261 84.9422 1.37042 0.0769489 -0.112109 0.0
1 37 237.059 85.0279 1.40429 -0.00163705 0.156608 0.0
1 38 237.838 85.2067 1.37099 0.0583129 0.0455661 0.0
1 39 238.609 85.4218 1.40659 0.0502476 0.0115641 0.0
1 40 239.373 85.658 1.3736 0.0704214 0.00689998 0.0
1 41 240.1 86.0044 1.40894 0.0185095 -0.012416 0.0
1 42 240.894 86.156 1.37471 0.0577763 0.0825229 0.0
1 43 241.627 86.4783 1.41153 -0.00617318 0.155377 0.0
1 44 242.355 86.8095 1.38224 -0.00354249 0.163893 0.0
1 45 243.099 87.1031 1.41729 0.000456082 0.185338 0.0
1 46 243.846 87.3933 1.38666 0.052195 -0.0231953 0.0
1 47 244.609 87.6316 1.42156 0.100915 -0.0972278 0.0
1 48 245.395 87.7959 1.39072 0.0967141 -0.0161326 0.0
1 49 246.152 88.0538 1.42601 0.0495822 -0.0307928 0.0
1 50 246.916 88.2967 1.39847 0.0297298 0.0342893 0.0
1 51 247.702 88.4413 1.43559 0.0811499 0.0168556 0.0
1 52 248.466 88.6958 1.4097 0.0759465 0.0496814 0.0
1 53 249.258 88.8117 1.4446 0.0547702 0.0382939 0.0
1 54 250.058 88.866 1.41969 0.0445572 -0.0681788 0.0
1 55 250.837 89.0688 1.45532 0.0416088 -0.0251277 0.0
1 56 251.627 89.171 1.43085 0.0567486 0.0025274 0.0
1 57 252.434 89.1881 1.4595 0.0486463 -0.0664571 0.0
1 58 253.218 89.3495 1.44148 0.0521588 0.046031 0.0
1 59 253.974 89.6252 1.45863 0.0597 0.0338717 0.0
1 60 254.739 89.8484 1.4481 0.05893 -0.00412456 0.0
2 1 332.919 228.047 0.443391 -0.0225309 -0.0639548 0.0
2 2 332.288 227.562 0.460588 -0.0493701 -0.00630008 0.0
2 3 331.703 227.006 0.488827 0.0255427 -0.123506 0.0
2 4 331.02 226.585 0.483982 0.0946124 -0.201762 0.0
2 5 330.371 226.12 0.515882 0.0694225 -0.185086 0.0
2 6 329.638 225.78 0.49335 0.00291326 -0.0515225 0.0
2 7 328.993 225.305 0.527021 -0.0335806 -0.00379661 0.0
2 8 328.346 224.836 0.493247 0.0817544 -0.162982 0.0
2 9 327.781 224.259 0.526447 -0.0152641 -0.0270579 0.0
2 10 327.113 223.815 0.487362 -0.00784869 -0.0440684 0.0
2 11 326.447 223.374 0.52105 0.0230424 -0.0868252 0.0
2 12 325.731 223.007 0.479057 -0.0282047 -0.00588008 0.0
2 13 325.124 222.475 0.513003 0.0370057 -0.108446 0.0
2 14 324.447 222.051 0.468047 -0.0194966 -0.0224785 0.0
2 15 323.746 221.663 0.501548 -0.0183605 -0.0140505 0.0
2 16 323.057 221.256 0.459332 -0.0178156 -0.0312041 0.0
2 17 322.335 220.909 0.494758 0.033198 -0.111383 0.0
2 18 321.703 220.403 0.449208 -0.0509321 0.0128503 0.0
2 19 320.981 220.057 0.484967 -0.0863473 0.0801131 0.0
2 20 320.251 219.731 0.440495 0.0307778 -0.168566 0.0
2 21 319.559 219.326 0.475619 -0.0389479 -0.0175759 0.0
2 22 318.782 219.097 0.430821 -0.0613637 0.0262104 0.0
2 23 318.118 218.633 0.461143 0.0365229 -0.187644 0.0
2 24 317.357 218.37 0.421109 0.0136718 -0.121693 0.0
2 25 316.651 217.998 0.445168 -0.0118551 -0.0758926 0.0
2 26 315.979 217.554 0.419439 -0.0409912 -0.0206571 0.0
2 27 315.239 217.248 0.448344 -0.07768 0.054792 0.0
2 28 314.507 216.926 0.421365 -0.0413036 -0.00674219 0.0
2 29 313.751 216.663 0.45113 0.0313843 -0.210511 0.0
2 30 312.99 216.416 0.423317 0.0239923 -0.197033 0.0
2 31 312.21 216.233 0.442806 -0.00297255 -0.0833089 0.0
2 32 311.441 216.015 0.415113 0.00737192 -0.11331 0.0
2 33 310.68 215.767 0.435584 -0.0120964 -0.0458263 0.0
2 34 309.935 215.476 0.413288 0.026102 -0.167369 0.0
2 35 309.184 215.199 0.431792 0.00149798 -0.0929125 0.0
2 36 308.403 215.017 0.406029 -0.000900246 -0.101677 0.0
2 37 307.67 214.685 0.423308 -0.0113397 -0.0757916 0.0
2 38 306.881 214.526 0.391164 -0.0788752 0.109369 0.0
2 39 306.154 214.173 0.410993 -0.0186203 -0.075406 0.0
2 40 305.372 213.998 0.371388 -0.0626514 0.0368036 0.0
2 41 304.615 213.734 0.397182 -0.0679399 0.0748585 0.0
2 42 303.835 213.552 0.358374 -0.0334422 -0.0937769 0.0
2 43 303.039 213.456 0.38914 -0.0353027 -0.111593 0.0
2 44 302.259 213.282 0.354835 -0.0529044 -0.029375 0.0
2 45 301.461 213.188 0.387838 -0.0125976 -0.211446 0.0
2 46 300.684 212.995 0.359139 -0.0525945 -0.0450537 0.0
2 47 299.909 212.801 0.388408 -0.0352565 -0.0877886 0.0
2 48 299.157 212.518 0.354384 -0.0725703 0.0399151 0.0
2 49 298.377 212.334 0.375608 -0.065771 0.059709 0.0
2 50 297.581 212.233 0.341818 -0.0535878 -0.0158302 0.0
2 51 296.782 212.209 0.364833 -0.0441839 0.0195071 0.0
2 52 295.981 212.166 0.330814 -0.0476298 0.00800604 0.0
2 53 295.194 212.006 0.352977 -0.0134703 -0.0981892 0.0
2 54 294.43 211.768 0.318954 -0.0176266 -0.060228 0.0
2 55 293.667 211.523 0.330227 -0.0194291 -0.0483081 0.0
2 56 292.866 211.426 0.294828 0.00920512 -0.143292 0.0
2 57 292.106 211.171 0.309922 -0.010891 -0.0657742 0.0
2 58 291.331 210.975 0.278438 -0.0061039 -0.0831178 0.0
2 59 290.529 210.894 0.283893 -0.0279076 0.0581861 0.0
2 60 289.771 210.617 0.261583 -0.0288078 0.0095918 0.0
3 1 224.204 39.0062 2.8759 0.0859761 -0.0157883 0.0
3 2 224.97 39.2305 2.86706 0.0457363 0.068721 0.0
3 3 225.726 39.5008 2.88419 0.0856269 -0.0202012 0.0
3 4 226.443 39.8605 2.86532 0.0804303 -0.0146523 0.0
3 5 227.093 40.3336 2.891 0.0504238 0.0334999 0.0
3 6 227.809 40.694 2.86514 0.0625189 0.00773876 0.0
3 7 228.481 41.1282 2.89308 0.0497708 0.0268499 0.0
3 8 229.177 41.5243 2.86212 0.0826156 -0.0387361 0.0
3 9 229.874 41.9143 2.89373 0.0571094 0.00487278 0.0
3 10 230.663 42.1235 2.85751 0.107349 -0.114732 0.0
3 11 231.337 42.5603 2.88916 0.117408 -0.137881 0.0
3 12 232.028 42.961 2.84988 0.13638 -0.169622 0.0
3 13 232.739 43.3309 2.87986 0.0500652 -0.0238979 0.0
3 14 233.387 43.8047 2.84185 0.0162794 0.0218955 0.0
3 15 234.112 44.1518 2.87317 0.0977527 -0.111361 0.0
3 16 234.757 44.6309 2.83979 -0.0326728 0.102199 0.0
3 17 235.505 44.9389 2.87102 0.0204688 0.0153731 0.0
3 18 236.151 45.4149 2.84016 -0.0745746 0.180368 0.0
3 19 236.846 45.8149 2.86589 -0.0156396 0.0688633 0.0
3 20 237.596 46.1023 2.83269 -0.0166451 0.0720215 0.0
3 21 238.33 46.4188 2.86054 0.0466529 -0.0885868 0.0
3 22 239.122 46.5796 2.83231 -0.0130672 0.0778421 0.0
3 23 239.866 46.8726 2.85832 0.0178591 0.0210371 0.0
3 24 240.614 47.1575 2.83386 -0.0575909 0.208828 0.0
3 25 241.305 47.5745 2.84754 0.0324769 0.00429252 0.0
3 26 242.06 47.8427 2.82457 -0.00278606 0.108234 0.0
3 27 242.812 48.1135 2.81647 0.0885017 -0.137754 0.0
3 28 243.554 48.4159 2.78159 0.0322586 0.0376341 0.0
3 29 244.324 48.6364 2.74368 0.0521649 -0.0263351 0.0
3 30 245.09 48.8531 2.67702 0.0706054 -0.0722802 0.0
3 31 245.862 49.0555 2.59983 0.0101376 0.131787 0.0
3 32 246.601 49.3496 2.50085 0.0845358 -0.0949177 0.0
3 33 247.384 49.5043 2.38874 0.0334428 0.0498078 0.0
3 34 248.074 49.9298 2.26153 0.0276372 0.0674689 0.0
3 35 248.84 50.1196 2.13403 0.0565898 -0.0110394 0.0
3 36 249.611 50.3071 2.01507 0.0527328 -0.0378747 0.0
3 37 250.402 50.3954 1.91999 0.0471208 0.0275222 0.0
3 38 251.187 50.5358 1.84745 0.0249653 0.113751 0.0
3 39 251.955 50.7615 1.79695 0.0329923 0.0742539 0.0
3 40 252.717 50.9964 1.75487 0.0412882 0.0307249 0.0
3 41 253.511 51.1306 1.73816 0.0554728 -0.0207362 0.0
3 42 254.25 51.45 1.70569 0.049681 -0.0213107 0.0
3 43 255.02 51.6651 1.70913 0.00473698 0.131242 0.0
3 44 255.808 51.811 1.68027 0.0515255 -0.0444795 0.0
3 45 256.597 51.9374 1.69625 0.0183101 0.0474174 0.0
3 46 257.38 52.1105 1.6691 0.0582162 -0.0802619 0.0
3 47 258.165 52.2594 1.69582 0.00265559 0.113099 0.0
3 48 258.899 52.611 1.66692 -0.0120385 0.150661 0.0
3 49 259.713 52.6604 1.70174 0.00261031 0.10441 0.0
3 50 260.465 52.9419 1.67477 0.0221261 0.0127722 0.0
3 51 261.243 53.1273 1.71794 0.0261064 0.0165642 0.0
3 52 262.011 53.3507 1.69429 0.0285521 0.00207662 0.0
3 53 262.781 53.5702 1.73927 0.0588737 -0.103013 0.0
3 54 263.538 53.8212 1.72119 0.0259401 0.0288903 0.0
3 55 264.306 54.058 1.76343 -0.0445023 0.199493 0.0
3 56 265.015 54.4356 1.75006 0.0452476 -0.00939838 0.0
3 57 265.685 54.8732 1.7867 0.0560049 0.0208604 0.0
3 58 266.378 55.2728 1.78049 0.105659 -0.0995547 0.0
3 59 267.114 55.5926 1.80511 0.138858 -0.145895 0.0
3 60 267.815 55.9766 1.80852 0.0900451 -0.0642474 0.0
4 1 157.778 170.991 1.69049 0.0374813 0.0728271 0.0
4 2 157.23 171.571 1.7002 -0.049496 -0.00220132 0.0
4 3 156.58 172.052 1.68342 -0.110251 -0.0992583 0.0
4 4 156.077 172.679 1.70053 -0.0187345 0.0145131 0.0
4 5 155.448 173.18 1.671 -0.0674759 -0.0450363 0.0
4 6 154.955 173.817 1.69385 0.0230494 0.0476914 0.0
4 7 154.347 174.34 1.66284 -0.0712024 -0.056978 0.0
4 8 153.838 174.961 1.69342 0.0771758 0.0940281 0.0
4 9 153.255 175.509 1.65992 -0.0602459 -0.058793 0.0
4 10 152.627 176.006 1.69597 -0.035343 -0.0339065 0.0
4 11 152.018 176.523 1.66438 0.0122164 0.0256809 0.0
4 12 151.412 177.044 1.70523 -0.025995 -0.00772596 0.0
4 13 150.814 177.577 1.67271 0.0458719 0.0593183 0.0
4 14 150.3 178.193 1.71498 -0.162699 -0.120756 0.0
4 15 149.798 178.813 1.68268 -0.0377483 -0.0146502 0.0
4 16 149.41 179.521 1.72849 0.0466451 0.0363175 0.0
4 17 148.913 180.146 1.69397 -0.0208983 -0.00398154 0.0
4 18 148.403 180.765 1.73991 -0.0276751 -0.00783908 0.0
4 19 148.0 181.459 1.70305 0.0193197 0.024853 0.0
4 20 147.525 182.102 1.74884 0.0154176 0.0242767 0.0
4 21 147.217 182.853 1.70984 -0.202715 -0.112907 0.0
4 22 146.746 183.499 1.75612 0.0163051 0.0236541 0.0
4 23 146.275 184.148 1.71342 0.0159118 0.0222844 0.0
4 24 145.683 184.694 1.75828 -0.067701 -0.0543213 0.0
4 25 145.138 185.275 1.70795 0.0851089 0.0725688 0.0
4 26 144.687 185.945 1.75 0.052629 0.0412411 0.0
4 27 144.078 186.473 1.69627 -0.0329916 -0.0355966 0.0
4 28 143.579 187.099 1.735 -0.00428201 -0.00412958 0.0
4 29 143.109 187.747 1.67761 0.000647593 -0.00708382 0.0
4 30 142.678 188.422 1.71847 -0.0701936 -0.0453778 0.0
4 31 142.298 189.126 1.65969 0.121539 0.0700444 0.0
4 32 141.996 189.869 1.69805 -0.0297665 -0.0182203 0.0
4 33 141.626 190.578 1.64274 -0.0818275 -0.0207562 0.0
4 34 141.277 191.298 1.68101 0.00922002 0.017512 0.0
4 35 140.954 192.032 1.63041 0.0521322 0.0477568 0.0
4 36 140.731 192.803 1.66867 0.0699609 0.0458863 0.0
4 37 140.609 193.596 1.6225 -0.00713868 0.0367722 0.0
4 38 140.549 194.394 1.6623 -0.0267592 0.0359063 0.0
4 39 140.481 195.19 1.621 -0.0501646 0.0351785 0.0
4 40 140.371 195.985 1.66204 -0.0799909 0.0275963 0.0
4 41 140.205 196.767 1.61946 -0.112686 0.0232611 0.0
4 42 139.967 197.535 1.66545 -0.0100828 0.0419279 0.0
4 43 139.993 198.352 1.62443 -0.154244 0.0144545 0.0
4 44 139.783 199.126 1.66961 0.150437 0.0608228 0.0
4 45 139.618 199.908 1.63045 -0.193828 0.0052364 0.0
4 46 139.472 200.697 1.6733 -0.0896737 0.0225842 0.0
4 47 139.445 201.498 1.63714 0.09231 0.0339728 0.0
4 48 139.442 202.297 1.67828 -0.0141722 0.0318985 0.0
4 49 139.483 203.098 1.63986 0.0898457 0.0349611 0.0
4 50 139.638 203.885 1.679 -0.0760241 0.0514238 0.0
4 51 139.66 204.687 1.63659 -0.145221 0.0568421 0.0
4 52 139.88 205.466 1.67306 0.109379 0.0298002 0.0
4 53 139.909 206.268 1.62822 -0.0142833 0.0361916 0.0
4 54 140.021 207.06 1.65896 -0.152878 0.054865 0.0
4 55 140.162 207.846 1.62012 -0.0355981 0.0441258 0.0
4 56 140.19 208.651 1.64771 -0.015104 0.038115 0.0
4 57 140.389 209.429 1.61128 0.220005 0.0192654 0.0
4 58 140.5 210.222 1.62922 0.0764417 0.0283463 0.0
4 59 140.531 211.023 1.60671 0.0402181 0.0435202 0.0
4 60 140.493 211.823 1.6149 -0.184006 0.0340784 0.0
5 1 213.388 59.1181 1.60445 0.0162586 -0.0320233 0.0
5 2 214.177 59.2327 1.59998 0.0415403 0.034473 0.0
5 3 214.971 59.3428 1.62431 0.0175482 0.051319 0.0
5 4 215.764 59.4421 1.61437 0.0256397 0.0125196 0.0
5 5 216.525 59.7208 1.64824 0.0640795 -0.108483 0.0
5 6 217.318 59.8267 1.63446 0.0112673 0.0129438 0.0
5 7 218.104 59.9745 1.67328 0.0407589 0.0309622 0.0
5 8 218.9 60.0632 1.65734 -0.0141924 0.179476 0.0
5 9 219.674 60.2833 1.6963 0.0421427 0.034184 0.0
5 10 220.471 60.3637 1.67748 0.0300804 -0.0325641 0.0
5 11 221.266 60.4447 1.71471 0.0521852 -0.0639455 0.0
5 12 222.056 60.5814 1.69342 0.0282751 0.00056359 0.0
5 13 222.851 60.6582 1.72876 0.0307699 0.0925652 0.0
5 14 223.649 60.7241 1.70719 0.0209332 -0.0614629 0.0
5 15 224.445 60.7908 1.73895 0.041813 -0.0470507 0.0
5 16 225.238 60.9079 1.71638 -0.0125477 0.127469 0.0
5 17 226.028 61.0149 1.74415 0.0242016 -0.00551828 0.0
5 18 226.794 61.28 1.72155 -0.00205557 0.0914153 0.0
5 19 227.604 61.2865 1.74591 -0.00940936 0.0743478 0.0
5 20 228.382 61.4821 1.72765 -0.00224569 0.0851452 0.0
5 21 229.168 61.6214 1.74398 -0.0304251 0.136636 0.0
5 22 229.92 61.9221 1.73335 -0.0169505 0.124898 0.0
5 23 230.729 61.9696 1.73889 0.0282763 -0.179456 0.0
5 24 231.502 62.1643 1.73883 -0.00640339 0.054534 0.0
5 25 232.277 62.3723 1.73123 -0.0214209 0.0346497 0.0
5 26 233.075 62.4566 1.74354 0.0533683 -0.296762 0.0
5 27 233.863 62.5808 1.72547 0.0131086 -0.06737 0.0
5 28 234.662 62.6652 1.74681 0.00453825 0.0463571 0.0
5 29 235.436 62.8694 1.72374 0.0394693 -0.130589 0.0
5 30 236.21 63.0718 1.75067 0.0253259 -0.0110899 0.0
5 31 236.995 63.2239 1.72394 0.0286848 -0.0313399 0.0
5 32 237.787 63.3445 1.75289 0.0158193 0.00490449 0.0
5 33 238.58 63.4444 1.72543 0.0262715 -0.047874 0.0
5 34 239.368 63.593 1.75733 -0.00164372 0.0208027 0.0
5 35 240.142 63.7917 1.72952 0.00360954 -0.00586172 0.0
5 36 240.927 63.9562 1.76111 0.00419819 -0.0223155 0.0
5 37 241.724 64.0325 1.73359 -0.00193932 -0.0562969 0.0
5 38 242.519 64.1229 1.76523 0.010343 -0.0287074 0.0
5 39 243.3 64.3017 1.7389 -0.0260948 0.0408646 0.0
5 40 244.075 64.495 1.77177 0.028849 -0.0351951 0.0
5 41 244.861 64.6515 1.74248 -0.000146305 -0.0568767 0.0
5 42 245.639 64.8272 1.77491 0.0189292 -0.000155854 0.0
5 43 246.42 65.0095 1.74458 0.0257591 -0.0771411 0.0
5 44 247.204 65.1616 1.77859 0.0298785 -0.0930531 0.0
5 45 248.014 65.1408 1.74654 0.00399213 0.139786 0.0
5 46 248.8 65.286 1.78011 0.0503958 -0.182954 0.0
5 47 249.576 65.4931 1.74698 -0.0143775 0.148809 0.0
5 48 250.321 65.7803 1.7763 0.0214313 0.0115622 0.0
5 49 251.053 66.1097 1.74584 0.0257748 0.0126432 0.0
5 50 251.796 66.3983 1.7749 0.0542777 -0.0211522 0.0
5 51 252.585 66.5713 1.74646 0.0151479 0.0239232 0.0
5 52 253.299 66.9463 1.77289 0.106439 -0.155054 0.0
5 53 254.047 67.2221 1.74905 0.0204414 0.0397313 0.0
5 54 254.806 67.483 1.77045 -0.00810409 0.131115 0.0
5 55 255.54 67.794 1.75465 0.0500976 -0.00512167 0.0
5 56 256.338 67.9435 1.76841 0.0413087 -0.0977209 0.0
5 57 257.001 68.4437 1.75899 -0.0211056 0.144359 0.0
5 58 257.823 68.538 1.76879 -0.0192039 0.0126056 0.0
5 59 258.524 68.9335 1.76573 -0.0185776 0.0618847 0.0
5 60 259.25 69.2637 1.77188 0.030354 -0.130623 0.0
6 1 227.867 112.205 3.18452 0.011905 0.00862952 0.0
6 2 228.64 112.431 3.19579 0.0371512 -0.0915239 0.0
6 3 229.333 112.846 3.17901 0.0186151 -0.063939 0.0
6 4 230.083 113.124 3.19918 -0.000448573 -0.0422226 0.0
6 5 230.821 113.437 3.17047 -0.0460362 0.119486 0.0
6 6 231.592 113.655 3.19904 -0.0126316 0.0347295 0.0
6 7 232.352 113.903 3.16433 -0.013548 0.0315744 0.0
6 8 233.121 114.13 3.19684 -0.0103376 0.0287292 0.0
6 9 233.874 114.4 3.15824 0.00445497 -0.0428321 0.0
6 10 234.647 114.619 3.19379 0.0144527 -0.0212968 0.0
6 11 235.434 114.758 3.15455 -0.00585941 0.0270193 0.0
6 12 236.239 114.81 3.19319 -0.00778967 0.149916 0.0
6 13 237.016 115.005 3.15135 -0.00319718 0.0762914 0.0
6 14 237.771 115.28 3.18894 -0.000850217 0.127714 0.0
6 15 238.55 115.466 3.14695 0.0277331 -0.0157356 0.0
6 16 239.34 115.6 3.18185 0.0333748 -0.0116045 0.0
6 17 240.117 115.793 3.14512 0.0618908 -0.151501 0.0
6 18 240.909 115.913 3.18048 0.00572413 0.182196 0.0
6 19 241.671 116.181 3.14237 0.0573335 -0.0856484 0.0
6 20 242.463 116.294 3.1787 0.0104417 0.183677 0.0
6 21 243.252 116.442 3.1396 0.0370098 0.00868222 0.0
6 22 244.061 116.363 3.1744 0.0390323 0.0671611 0.0
6 23 244.853 116.5 3.13791 0.0213082 0.0262607 0.0
6 24 245.654 116.501 3.17541 0.0388346 0.178595 0.0
6 25 246.455 116.51 3.13707 0.032861 -0.0511844 0.0
6 26 247.253 116.494 3.17668 0.040714 0.0219993 0.0
6 27 248.039 116.278 3.13467 0.0350177 -0.0655357 0.0
6 28 248.841 116.296 3.17884 0.0619799 0.106668 0.0
6 29 249.638 116.278 3.13646 0.0350642 0.0123314 0.0
6 30 250.438 116.218 3.18003 0.0573258 -0.158651 0.0
6 31 251.236 116.208 3.13708 0.0452501 0.0469096 0.0
6 32 252.032 116.367 3.18198 0.0554641 -0.0295289 0.0
6 33 252.834 116.257 3.13709 0.056017 -0.024873 0.0
6 34 253.632 116.338 3.18299 0.0601024 0.0310288 0.0
6 35 254.43 116.328 3.1373 0.0467073 -0.0687401 0.0
6 36 255.232 116.42 3.18521 0.0500175 0.0796852 0.0
6 37 256.028 116.314 3.13854 0.0405248 -0.0811167 0.0
6 38 256.827 116.272 3.19004 0.0530966 0.0576314 0.0
6 39 257.614 116.111 3.13898 0.0219846 -0.110564 0.0
6 40 258.383 115.893 3.19433 0.0332694 -0.0688238 0.0
6 41 259.156 115.685 3.14114 0.0598485 0.0013009 0.0
6 42 259.902 115.394 3.19808 0.109874 0.138397 0.0
6 43 260.66 115.139 3.14137 0.0348585 -0.0123807 0.0
6 44 261.395 114.817 3.19823 0.134509 0.180627 0.0
6 45 262.076 114.394 3.14542 0.13109 0.141782 0.0
6 46 262.777 114.009 3.19961 0.00914022 -0.0134666 0.0
6 47 263.474 113.618 3.15035 0.111809 0.0894588 0.0
6 48 264.145 113.181 3.19981 -0.0363108 -0.0741005 0.0
6 49 264.811 112.739 3.15467 -0.0415518 -0.089008 0.0
6 50 265.358 112.136 3.19911 -0.0449887 -0.0647847 0.0
6 51 266.066 111.747 3.15685 0.0865888 0.0859939 0.0
6 52 266.681 111.235 3.19914 0.0902653 0.125867 0.0
6 53 267.323 110.755 3.16189 0.0622097 0.0769315 0.0
6 54 268.019 110.359 3.19882 0.0142336 0.0439956 0.0
6 55 268.652 109.861 3.16635 0.0738205 0.0940305 0.0
6 56 269.377 109.515 3.19792 0.0497772 0.0580035 0.0
6 57 270.08 109.135 3.17119 0.0139392 0.025784 0.0
6 58 270.779 108.745 3.19639 -0.00889816 -0.0340434 0.0
6 59 271.382 108.203 3.18256 0.018075 0.0525727 0.0
6 60 272.142 107.907 3.19969 -0.00340305 -0.100233 0.0
7 1 206.236 178.491 0.242642 0.0317193 -0.0117376 0.0
7 2 205.72 179.107 0.256366 0.167511 0.118648 0.0
7 3 205.033 179.546 0.237523 -0.0255772 -0.106537 0.0
7 4 204.497 180.14 0.260265 -0.00266543 -0.0820882 0.0
7 5 203.929 180.705 0.22986 0.175447 0.136933 0.0
7 6 203.263 181.158 0.258997 0.0335234 0.0135933 0.0
7 7 202.617 181.622 0.223277 0.125854 0.135556 0.0
7 8 202.05 182.2 0.255786 0.0585714 0.0954144 0.0
7 9 201.368 182.622 0.222496 0.0978051 0.156866 0.0
7 10 200.652 182.978 0.256115 -0.0520392 -0.0295855 0.0
7 11 199.981 183.418 0.219986 -0.00279133 0.0919417 0.0
7 12 199.257 183.76 0.256227 -0.00754017 0.119834 0.0
7 13 198.51 184.047 0.220114 -0.00897522 0.114319 0.0
7 14 197.793 184.404 0.259643 -0.0793378 -0.055356 0.0
7 15 197.066 184.733 0.22337 -0.126292 -0.104545 0.0
7 16 196.344 185.084 0.263363 -0.0794917 -0.0232121 0.0
7 17 195.694 185.556 0.225561 -0.062799 0.0231345 0.0
7 18 195.076 186.062 0.263765 -0.0881825 -0.0103294 0.0
7 19 194.442 186.55 0.224025 0.0317576 0.138247 0.0
7 20 193.735 186.934 0.264155 0.014814 0.0771598 0.0
7 21 193.123 187.457 0.230341 -0.129245 -0.0605593 0.0
7 22 192.434 187.866 0.266752 -0.063815 -0.0234659 0.0
7 23 191.737 188.254 0.229591 -0.0634698 0.0442261 0.0
7 24 191.077 188.716 0.267688 -0.0762052 -0.0653099 0.0
7 25 190.285 188.927 0.232424 -0.0574934 0.0599063 0.0
7 26 189.618 189.374 0.272185 -0.109212 -0.106544 0.0
7 27 188.893 189.714 0.234076 -0.0132433 0.121799 0.0
7 28 188.216 190.146 0.27353 -0.0422861 0.00674658 0.0
7 29 187.469 190.444 0.235012 0.0522559 0.22346 0.0
7 30 186.781 190.854 0.276414 -0.0312157 0.0579692 0.0
7 31 186.087 191.252 0.236321 0.0297779 0.135339 0.0
7 32 185.36 191.59 0.276227 -0.0454538 0.00123309 0.0
7 33 184.628 191.912 0.239703 -0.0252012 0.0208794 0.0
7 34 183.984 192.406 0.276402 -0.0264767 0.0272928 0.0
7 35 183.2 192.634 0.242615 -0.105389 -0.209931 0.0
7 36 182.539 193.091 0.277628 -0.0580058 -0.0859835 0.0
7 37 181.848 193.494 0.24021 -0.00829555 -0.00776734 0.0
7 38 181.104 193.799 0.276276 0.0371349 0.0309667 0.0
7 39 180.393 194.16 0.23831 -0.0115751 -0.050381 0.0
7 40 179.663 194.495 0.274774 -0.0107676 -0.0682406 0.0
7 41 178.977 194.908 0.235419 0.000842883 -0.0230088 0.0
7 42 178.289 195.317 0.270562 0.0249241 -0.0123214 0.0
7 43 177.619 195.754 0.231517 -0.0384911 -0.101285 0.0
7 44 176.991 196.253 0.265613 -0.0546182 -0.138839 0.0
7 45 176.344 196.72 0.22668 -0.0885481 -0.166529 0.0
7 46 175.745 197.26 0.262414 0.0723946 0.0677588 0.0
7 47 174.998 197.584 0.222366 -0.070836 -0.132326 0.0
7 48 174.357 198.06 0.259544 -0.0492703 -0.0995091 0.0
7 49 173.709 198.529 0.218675 0.00363437 -0.0221051 0.0
7 50 173.005 198.916 0.254203 0.0248493 0.01661 0.0
7 51 172.374 199.412 0.216174 -0.0637509 -0.100457 0.0
7 52 171.806 199.976 0.255758 0.0808351 0.0455373 0.0
7 53 171.138 200.428 0.218227 -0.0921311 -0.118209 0.0
7 54 170.604 201.03 0.25766 -0.0391155 -0.0602149 0.0
7 55 170.038 201.591 0.223212 -0.0113748 -0.0585267 0.0
7 56 169.371 202.048 0.257975 -0.030311 -0.0926276 0.0
7 57 168.821 202.629 0.231363 -0.0116649 -0.0689111 0.0
7 58 168.209 203.148 0.259425 -0.0572608 -0.0999651 0.0
7 59 167.733 203.801 0.246231 0.0442279 0.00174787 0.0
7 60 167.118 204.317 0.264318 -0.0480517 -0.0774508 0.0
8 1 124.189 198.444 1.46337 -0.0918566 0.0700665 0.0
8 2 124.371 199.225 1.45041 -0.0466061 0.0956666 0.0
8 3 124.745 199.946 1.46567 -0.0379605 0.05429 0.0
8 4 124.919 200.729 1.44463 0.0092789 0.06572 0.0
8 5 125.045 201.519 1.47001 0.0770034 0.0331112 0.0
8 6 125.134 202.314 1.44388 0.00483213 0.067992 0.0
8 7 125.395 203.08 1.47195 0.00492288 0.0457558 0.0
8 8 125.446 203.884 1.43992 0.0633949 0.0486973 0.0
8 9 125.659 204.658 1.469 0.0298805 0.031682 0.0
8 10 125.697 205.464 1.43576 0.0274834 0.0407568 0.0
8 11 125.893 206.24 1.46747 -0.124309 0.0565595 0.0
8 12 126.009 207.035 1.4331 -0.0552945 0.0440452 0.0
8 13 126.257 207.797 1.46724 0.0112452 0.0217129 0.0
8 14 126.549 208.543 1.43235 -0.088755 0.0490496 0.0
8 15 126.757 209.317 1.46935 0.0219571 0.0102344 0.0
8 16 126.998 210.08 1.43568 0.0788669 -0.0191271 0.0
8 17 127.18 210.859 1.47302 0.148602 -0.0245776 0.0
8 18 127.452 211.615 1.44191 -0.0828421 0.0150051 0.0
8 19 127.593 212.404 1.48008 0.118838 -0.00759418 0.0
8 20 127.852 213.165 1.44991 -0.11798 0.0233466 0.0
8 21 127.87 213.978 1.48691 0.113756 0.00603359 0.0
8 22 128.069 214.752 1.45997 0.101132 -0.00914949 0.0
8 23 128.28 215.525 1.49756 0.147017 0.00887395 0.0
8 24 128.339 216.329 1.47228 -0.0540454 0.0288575 0.0
8 25 128.556 217.1 1.51057 -0.0265169 0.0493637 0.0
8 26 128.712 217.885 1.485 0.0888629 0.00287588 0.0
8 27 129.083 218.611 1.52333 0.297187 -0.0513978 0.0
8 28 129.196 219.409 1.4982 -0.024801 0.0321534 0.0
8 29 129.442 220.17 1.53154 0.126991 0.00297056 0.0
8 30 129.613 220.954 1.50916 0.12004 -0.00543703 0.0
8 31 129.844 221.719 1.54297 -0.0431715 0.0436345 0.0
8 32 129.943 222.519 1.5236 -0.0632017 0.0475399 0.0
8 33 130.264 223.262 1.55255 -0.0315208 0.0459898 0.0
8 34 130.384 224.057 1.53345 -0.0148113 0.0527471 0.0
8 35 130.657 224.813 1.5562 -0.113637 0.068479 0.0
8 36 130.8 225.601 1.53918 0.206827 0.00581167 0.0
8 37 131.032 226.369 1.55392 0.0719315 0.0229501 0.0
8 38 131.104 227.171 1.54296 -0.08139 0.0615158 0.0
8 39 131.317 227.944 1.54663 -0.0066087 0.0383995 0.0
8 40 131.454 228.732 1.54371 0.0399943 0.026971 0.0
8 41 131.636 229.511 1.53706 0.0880206 0.0163261 0.0
8 42 131.763 230.301 1.54534 0.0364685 0.0289514 0.0
8 43 131.892 231.09 1.53016 -0.0734967 0.0326484 0.0
8 44 132.001 231.883 1.54516 0.152189 3.14257e-05 0.0
8 45 132.033 232.683 1.5205 0.131898 0.0136212 0.0
8 46 132.213 233.469 1.54259 0.053543 0.0119604 0.0
8 47 132.234 234.269 1.51045 -0.0838941 0.0348528 0.0
8 48 132.266 235.068 1.5364 0.24238 0.0172498 0.0
8 49 132.257 235.868 1.50138 0.165022 0.0228094 0.0
8 50 132.228 236.668 1.53041 0.00393454 0.0256461 0.0
8 51 132.388 237.463 1.49615 0.207208 0.0168817 0.0
8 52 132.351 238.262 1.52443 0.00467568 0.0185334 0.0
8 53 132.387 239.063 1.49036 -0.0405288 0.0214793 0.0
8 54 132.294 239.86 1.52007 0.113529 0.0212876 0.0
8 55 132.242 240.657 1.48455 -0.0331112 0.0285508 0.0
8 56 132.375 241.458 1.51214 -0.135539 0.0374322 0.0
8 57 132.318 242.256 1.48257 0.176161 0.0130406 0.0
8 58 132.329 243.056 1.5026 0.0639815 0.0435005 0.0
8 59 132.298 243.856 1.48615 -0.0511508 0.0129326 0.0
8 60 132.431 244.653 1.49661 -0.00232436 0.0350133 0.0
9 1 174.608 310.978 0.0426527 0.0749075 0.0452895 0.0
9 2 175.217 311.499 0.0703397 0.00348147 0.125836 0.0
9 3 175.756 312.092 0.0713037 0.165893 -0.0655968 0.0
9 4 176.321 312.657 0.105141 0.113283 0.00250546 0.0
9 5 176.99 313.112 0.0919555 -0.0112572 0.135209 0.0
9 6 177.52 313.717 0.131403 0.027279 0.085264 0.0
9 7 178.119 314.246 0.109093 0.0600226 0.0553992 0.0
9 8 178.792 314.688 0.149726 0.0362047 0.0584496 0.0
9 9 179.377 315.235 0.12036 0.0519141 0.0390915 0.0
9 10 180.002 315.735 0.162114 -0.00729629 0.103824 0.0
9 11 180.62 316.24 0.130529 0.049108 0.0100964 0.0
9 12 181.273 316.709 0.172166 0.0615102 0.0114999 0.0
9 13 181.824 317.293 0.1373 -0.0491422 0.0996894 0.0
9 14 182.363 317.882 0.177693 0.123322 -0.0495602 0.0
9 15 182.778 318.577 0.140389 0.0479588 0.0195736 0.0
9 16 183.329 319.156 0.179947 -0.167449 0.174317 0.0
9 17 183.796 319.811 0.142197 0.0240985 0.0284676 0.0
9 18 184.472 320.276 0.179561 -0.0345838 0.0394403 0.0
9 19 184.954 320.915 0.144804 0.0348267 -0.000229968 0.0
9 20 185.477 321.52 0.184078 0.133917 -0.105627 0.0
9 21 186.021 322.107 0.14553 0.0482624 -0.0224167 0.0
9 22 186.567 322.691 0.183328 0.17275 -0.139373 0.0
9 23 187.12 323.27 0.141116 -0.0175492 0.0420317 0.0
9 24 187.651 323.868 0.182266 0.0646432 -0.0343929 0.0
9 25 188.195 324.455 0.141058 0.0247426 0.00332668 0.0
9 26 188.761 325.02 0.182774 0.102662 -0.0746815 0.0
9 27 189.355 325.558 0.139828 0.152454 -0.138351 0.0
9 28 190.006 326.024 0.180671 0.00309243 0.0384374 0.0
9 29 190.627 326.531 0.140531 0.131222 -0.122782 0.0
9 30 191.313 326.947 0.178351 0.0663232 -0.053648 0.0
9 31 192.011 327.339 0.14103 0.0241289 0.0525598 0.0
9 32 192.788 327.567 0.179362 0.0111841 0.0642535 0.0
9 33 193.499 327.929 0.144559 0.104019 -0.12693 0.0
9 34 194.245 328.227 0.181772 0.0388968 -0.00348718 0.0
9 35 194.886 328.728 0.147383 0.00732225 0.0453423 0.0
9 36 195.619 329.047 0.186685 0.0627893 -0.0648342 0.0
9 37 196.337 329.407 0.152315 -0.0496443 0.170396 0.0
9 38 197.123 329.592 0.192775 0.026674 0.0128285 0.0
9 39 197.874 329.858 0.15805 0.0185704 0.0064627 0.0
9 40 198.596 330.216 0.196481 -0.0252628 0.132624 0.0
9 41 199.359 330.456 0.160889 0.0815242 -0.122851 0.0
9 42 200.108 330.738 0.198521 0.0290801 -0.0358736 0.0
9 43 200.864 330.999 0.162468 0.0682462 -0.0952777 0.0
9 44 201.663 331.115 0.19939 0.0221444 0.022548 0.0
9 45 202.422 331.365 0.161841 0.0551035 -0.0518218 0.0
9 46 203.198 331.564 0.198074 0.0167192 0.0421637 0.0
9 47 203.946 331.85 0.160566 0.0582879 -0.0528842 0.0
9 48 204.728 332.034 0.195474 0.0300823 0.0141864 0.0
9 49 205.479 332.305 0.157516 0.0357776 0.0236974 0.0
9 50 206.228 332.594 0.192087 0.103642 -0.170835 0.0
9 51 207.002 332.794 0.151879 0.0609944 -0.0138788 0.0
9 52 207.758 333.064 0.181544 0.0771366 -0.0560294 0.0
9 53 208.537 333.24 0.143002 0.0457931 0.0683471 0.0
9 54 209.333 333.361 0.170687 0.0734924 -0.0178821 0.0
9 55 210.098 333.589 0.133563 0.068056 -0.0400124 0.0
9 56 210.825 333.944 0.156332 0.0152561 0.139021 0.0
9 57 211.608 334.117 0.124517 0.0622524 0.012781 0.0
9 58 212.387 334.299 0.141956 0.0129564 0.101131 0.0
9 59 213.122 334.636 0.124629 0.0767094 0.00619667 0.0
9 60 213.886 334.862 0.133799 0.0348145 0.0556806 0.0
10 1 244.299 108.034 1.37444 0.0385501 0.147634 0.0
10 2 245.059 107.796 1.39639 0.0403373 0.0807908 0.0
10 3 245.803 107.486 1.38646 0.0329821 0.0927047 0.0
10 4 246.604 107.379 1.41184 -0.0149397 -0.128747 0.0
10 5 247.361 107.121 1.38853 0.0276271 0.0298644 0.0
10 6 248.144 106.949 1.41941 0.0384 0.0539074 0.0
10 7 248.909 106.715 1.39093 0.0286464 0.0327782 0.0
10 8 249.653 106.418 1.42523 0.0448548 0.0650734 0.0
10 9 250.412 106.167 1.39377 0.0345669 0.0522511 0.0
10 10 251.137 105.819 1.42814 0.0651363 0.123599 0.0
10 11 251.897 105.572 1.39635 0.086228 0.188929 0.0
10 12 252.663 105.339 1.42939 0.0431596 0.0690626 0.0
10 13 253.362 104.927 1.39678 0.0360157 0.0794501 0.0
10 14 254.133 104.708 1.42869 -0.0887254 -0.224049 0.0
10 15 254.851 104.342 1.39664 0.0339957 0.0862022 0.0
10 16 255.621 104.121 1.42818 0.0333507 0.115284 0.0
10 17 256.391 103.904 1.39579 0.030542 0.109624 0.0
10 18 257.156 103.673 1.42718 -0.00270913 0.0324017 0.0
10 19 257.93 103.464 1.3927 0.0255305 0.107489 0.0
10 20 258.62 103.027 1.42632 0.0144651 0.081746 0.0
10 21 259.382 102.786 1.39179 0.012856 0.0894649 0.0
10 22 260.167 102.613 1.42973 -0.0302385 -0.0842427 0.0