# 10
#nworms:10
#np:2
1 1 0.387363 0.531988 0.0 0.0 0.0 0.0
1 2 0.294828 0.569151 0.0 0.0 0.0 0.0
2 1 0.943219 0.575879 0.0 0.0 0.0 0.0
2 2 0.250262 0.892802 0.0 0.0 0.0 0.0
3 1 0.0644844 0.727744 0.0 0.0 0.0 0.0
3 2 0.0305137 0.678625 0.0 0.0 0.0 0.0
4 1 0.625055 0.129859 0.0 0.0 0.0 0.0
4 2 0.75258 0.173565 0.0 0.0 0.0 0.0
5 1 0.0804813 0.536753 0.0 0.0 0.0 0.0
5 2 0.892763 0.196327 0.0 0.0 0.0 0.0
6 1 0.808255 0.385096 0.0 0.0 0.0 0.0
6 2 0.381265 0.419632 0.0 0.0 0.0 0.0
7 1 0.535851 0.287722 0.0 0.0 0.0 0.0
7 2 0.134986 0.244358 0.0 0.0 0.0 0.0
8 1 0.895601 0.677788 0.0 0.0 0.0 0.0
8 2 0.681179 0.348147 0.0 0.0 0.0 0.0
9 1 0.187902 0.805701 0.0 0.0 0.0 0.0
9 2 0.649828 0.133359 0.0 0.0 0.0 0.0
10 1 0.729493 0.726681 0.0 0.0 0.0 0.0
10 2 0.814609 0.667576 0.0 0.0 0.0 0.0
#numPoints:5
1 0.0 0.0
2 0.0 0.0
3 0.0 0.0
4 0.0 0.0
5 0.0 0.0
#numSol:5
1 0.0 0.0 0.0 0.0
2 0.0 0.0 0.0 0.0
3 0.0 0.0 0.0 0.0
4 0.0 0.0 0.0 0.0
5 0.0 0.0 0.0 0.0
