# 12000000
#nworms:800
#np:80
1 1 74.7274 122.75 1.06312 0.747915 -0.0262625 0.0
1 2 74.5681 123.541 1.06369 0.155268 1.49609 0.0
1 3 74.3283 124.308 1.06168 -1.2354 -0.277582 0.0
1 4 74.5756 125.146 1.0651 0.214341 1.25314 0.0
1 5 74.2742 125.919 1.06325 0.0692324 0.538149 0.0
1 6 74.3626 126.744 1.06418 0.225888 -0.390716 0.0
1 7 74.2289 127.519 1.06131 -0.364056 -0.210929 0.0
1 8 73.8625 128.292 1.06617 -0.631029 1.12786 0.0
1 9 73.9472 129.098 1.05633 0.934991 -0.142346 0.0
1 10 74.1921 129.868 1.06223 1.05502 1.41646 0.0
1 11 73.9945 130.68 1.0536 -0.291133 0.642315 0.0
1 12 74.3814 131.448 1.06385 0.312124 1.47181 0.0
1 13 74.1952 132.267 1.05705 -0.737257 0.583672 0.0
1 14 74.2105 133.048 1.06144 0.791721 0.595734 0.0
1 15 73.519 133.725 1.06148 -0.112966 -0.176512 0.0
1 16 73.6625 134.534 1.06458 -0.547333 1.08159 0.0
1 17 73.4609 135.329 1.06222 -0.103831 -0.250087 0.0
1 18 73.3755 136.117 1.06215 -0.405538 -0.148157 0.0
1 19 73.0643 136.857 1.05668 0.27558 1.73654 0.0
1 20 72.8762 137.65 1.05658 -0.548186 -0.794218 0.0
1 21 72.6615 138.4 1.05436 0.868461 0.550923 0.0
1 22 72.3512 139.163 1.05337 -0.393071 -0.511818 0.0
1 23 72.1882 139.956 1.0529 -0.21038 0.600865 0.0
1 24 72.3547 140.765 1.05744 -0.425697 -0.126987 0.0
1 25 72.596 141.534 1.05522 0.248941 0.435376 0.0
1 26 72.7155 142.328 1.0598 -0.26546 0.248127 0.0
1 27 73.0307 143.073 1.06087 0.540296 -0.449334 0.0
1 28 73.1374 143.873 1.0609 -0.0345435 -0.615451 0.0
1 29 73.6448 144.519 1.05766 0.555705 -0.35055 0.0
1 30 73.6799 145.388 1.06091 -0.282754 -0.508644 0.0
1 31 74.3414 145.96 1.05833 -0.532168 0.153336 0.0
1 32 74.5628 146.736 1.05766 -0.596683 -0.25474 0.0
1 33 74.7371 147.524 1.05436 0.237067 0.0325219 0.0
1 34 74.9544 148.31 1.05577 -1.01924 -1.04617 0.0
1 35 74.7638 149.116 1.05474 -0.0202624 0.125099 0.0
1 36 74.7871 149.913 1.06109 1.57702 -0.361678 0.0
1 37 75.1186 150.678 1.05604 1.24122 0.0356586 0.0
1 38 75.163 151.471 1.05127 -0.361889 -0.990925 0.0
1 39 75.2341 152.287 1.04887 0.65644 0.950192 0.0
1 40 74.9873 153.062 1.05269 -0.815102 -0.255635 0.0
1 41 75.1132 153.873 1.04909 -0.653784 0.457838 0.0
1 42 74.3995 154.563 1.05182 0.490982 0.0460626 0.0
1 43 74.6447 155.398 1.05231 -0.945597 0.772823 0.0
1 44 74.4139 156.163 1.05376 -0.415991 0.601596 0.0
1 45 74.2634 156.946 1.06327 -0.476431 -0.157 0.0
1 46 73.9549 157.702 1.06403 -1.0733 0.280785 0.0
1 47 74.1145 158.549 1.06551 -1.31774 -0.57815 0.0
1 48 73.7756 159.294 1.06605 -0.121393 1.29008 0.0
1 49 73.6406 160.086 1.06718 -0.664235 0.500739 0.0
1 50 73.1173 160.766 1.06758 -1.79758 0.166853 0.0
1 51 73.0886 161.58 1.07002 0.250457 0.636006 0.0
1 52 72.6734 162.297 1.06621 1.25829 0.924845 0.0
1 53 72.3749 163.047 1.05703 -0.549188 -0.447683 0.0
1 54 71.974 163.731 1.05786 0.739739 0.333051 0.0
1 55 71.6535 164.499 1.06151 0.57634 0.0730085 0.0
1 56 70.9335 164.943 1.06293 0.192685 -1.06998 0.0
1 57 70.515 165.62 1.06636 -1.94625 -0.0507073 0.0
1 58 69.9777 166.224 1.05311 0.425933 0.147886 0.0
1 59 69.5827 166.905 1.06462 0.302554 -0.563035 0.0
1 60 68.9765 167.469 1.06456 -0.164864 -0.24299 0.0
1 61 68.435 168.015 1.0615 -0.353989 1.41583 0.0
1 62 67.729 168.43 1.06966 -0.3051 0.456513 0.0
1 63 67.3338 169.166 1.07335 -0.791519 0.304978 0.0
1 64 66.7622 169.68 1.0635 -0.800867 0.404987 0.0
1 65 66.1977 170.259 1.06423 -0.60819 1.76736 0.0
1 66 65.4763 170.629 1.06454 -0.373467 0.266456 0.0
1 67 64.8735 171.16 1.06701 -0.147052 -0.219314 0.0
1 68 64.2011 171.532 1.06382 -1.27897 0.21655 0.0
1 69 63.5363 172.002 1.06539 -0.107649 0.886286 0.0
1 70 62.7303 172.178 1.06194 -1.54774 -0.677859 0.0
1 71 62.0652 172.623 1.06224 -0.464346 1.75408 0.0
1 72 61.3569 172.994 1.06731 0.372168 -1.61907 0.0
1 73 60.565 173.202 1.0666 -0.697044 0.0613219 0.0
1 74 59.8528 173.542 1.06101 -1.59615 1.34183 0.0
1 75 59.1932 174.05 1.06178 -0.35076 1.06696 0.0
1 76 58.8443 174.798 1.05851 0.00631953 1.89743 0.0
1 77 58.2159 175.324 1.06292 -1.02787 1.28636 0.0
1 78 57.6445 175.88 1.06273 -0.240758 1.02113 0.0
1 79 57.3868 176.712 1.06296 -1.65303 -0.27486 0.0
1 80 56.644 177.127 1.06671 0.546242 1.38775 0.0
2 1 135.746 102.259 1.08137 -0.846982 -0.448396 0.0
2 2 135.448 101.535 1.08336 -0.508163 -1.36369 0.0
2 3 135.097 100.806 1.08246 -2.02471 1.5482 0.0
2 4 134.63 100.135 1.07904 -0.946713 -1.14224 0.0
2 5 133.927 99.6942 1.08286 -1.49555 0.957004 0.0
2 6 133.289 99.2258 1.07696 0.412932 -1.63407 0.0
2 7 132.723 98.653 1.08075 -0.231767 0.230865 0.0
2 8 132.298 97.9416 1.07265 -1.29393 0.115178 0.0
2 9 132.089 97.1682 1.07527 -0.282641 -0.3055 0.0
2 10 131.746 96.4514 1.07025 -0.640618 0.569633 0.0
2 11 131.25 95.7863 1.0677 1.30346 0.799222 0.0
2 12 130.589 95.346 1.06299 -1.06576 0.00176385 0.0
2 13 130.067 94.7369 1.07113 -0.723622 0.0521874 0.0
2 14 129.342 94.3183 1.05649 -0.305653 0.529937 0.0
2 15 128.695 93.8513 1.07661 1.25829 1.04084 0.0
2 16 128.121 93.3196 1.05883 -0.192048 -0.24202 0.0
2 17 127.512 92.7433 1.08347 0.110443 -0.249018 0.0
2 18 126.81 92.3781 1.0642 -0.636811 0.136077 0.0
2 19 126.008 92.1963 1.08944 0.674062 0.0657587 0.0
2 20 125.284 91.8357 1.06595 -0.39008 0.47045 0.0
2 21 124.483 91.7499 1.10371 -0.524359 0.0139465 0.0
2 22 123.683 91.7355 1.06068 -0.165659 -0.0986594 0.0
2 23 122.876 91.813 1.10974 -0.100763 -1.04383 0.0
2 24 122.08 91.8901 1.04561 -0.861866 -0.130256 0.0
2 25 121.302 91.5879 1.11698 0.38069 0.58408 0.0
2 26 120.496 91.6331 1.05222 -0.601064 -1.00181 0.0
2 27 119.75 91.3742 1.11693 -0.288697 -0.0274741 0.0
2 28 118.91 91.3888 1.05106 0.364164 0.208844 0.0
2 29 118.188 90.9695 1.09284 0.0801543 -0.649633 0.0
2 30 117.367 90.9058 1.04409 -0.100734 1.38805 0.0
2 31 116.567 90.8651 1.09513 0.783809 0.808277 0.0
2 32 115.789 90.7916 1.03934 -2.10611 0.120884 0.0
2 33 115.008 90.5392 1.10396 0.19049 0.104412 0.0
2 34 114.208 90.4571 1.0471 0.747011 0.21257 0.0
2 35 113.41 90.544 1.09713 -1.48882 1.06382 0.0
2 36 112.62 90.4501 1.05025 -1.3536 -0.60933 0.0
2 37 111.81 90.7101 1.09195 0.366391 0.164853 0.0
2 38 110.998 90.7006 1.05872 0.00610922 -1.42013 0.0
2 39 110.249 90.9535 1.09136 -0.666422 -0.509708 0.0
2 40 109.416 90.8336 1.05841 -0.0768112 -0.0490368 0.0
2 41 108.619 90.851 1.07952 -0.537127 0.396975 0.0
2 42 107.852 91.2475 1.04951 -0.21409 0.765889 0.0
2 43 107.04 91.2411 1.06697 0.162266 -0.198237 0.0
2 44 106.259 91.2625 1.04522 0.0297713 0.86146 0.0
2 45 105.438 91.4174 1.08248 -0.909179 -0.679334 0.0
2 46 104.699 91.722 1.03779 1.82637 1.10454 0.0
2 47 104.018 92.1466 1.0804 -0.606566 0.310414 0.0
2 48 103.306 92.5352 1.04215 0.380897 -0.207908 0.0
2 49 102.516 92.7412 1.07393 1.14646 0.705664 0.0
2 50 101.715 92.7516 1.03701 0.617512 0.456033 0.0
2 51 100.936 92.9187 1.06102 -0.619387 0.600105 0.0
2 52 100.102 92.85 1.03981 1.3162 -0.639866 0.0
2 53 99.3392 93.1007 1.07375 0.349587 -0.64118 0.0
2 54 98.5565 93.291 1.04412 0.43312 -0.395196 0.0
2 55 97.7869 93.5053 1.06343 0.101808 -1.80851 0.0
2 56 96.9511 93.3796 1.05498 -0.309886 1.3599 0.0
2 57 96.1927 93.5992 1.06947 -0.152394 -0.805015 0.0
2 58 95.3931 93.7033 1.04029 -0.848526 0.618164 0.0
2 59 94.6276 94.0643 1.07207 0.855662 0.325563 0.0
2 60 93.9209 94.365 1.0554 0.197848 0.471329 0.0
2 61 93.1261 94.569 1.07812 0.0153702 -1.70532 0.0
2 62 92.3584 94.7911 1.05836 0.0377803 -1.39701 0.0
2 63 91.71 95.3075 1.0408 -1.22326 -1.24869 0.0
2 64 90.9167 95.5116 1.04828 0.250576 -1.28935 0.0
2 65 90.1915 95.8481 1.06274 0.0235127 -0.541812 0.0
2 66 89.4324 96.1363 1.04895 0.922086 -1.2255 0.0
2 67 88.6974 96.4565 1.05846 -0.273192 0.583497 0.0
2 68 88.1877 97.1429 1.05351 0.572679 -0.0866253 0.0
2 69 87.5744 97.6291 1.06067 -0.289017 0.127907 0.0
2 70 86.9854 98.1584 1.05258 -0.18023 0.366942 0.0
2 71 86.4889 98.8233 1.05387 -0.174966 -0.297728 0.0
2 72 86.1999 99.567 1.05232 -0.443377 -1.04001 0.0
2 73 85.7694 100.246 1.04812 0.910982 0.766097 0.0
2 74 85.428 100.972 1.05634 -0.358115 0.662339 0.0
2 75 84.822 101.555 1.06171 0.0342751 -1.18559 0.0
2 76 84.2722 102.118 1.06105 0.174717 -0.543221 0.0
2 77 83.4155 102.309 1.05657 -0.296307 0.0913114 0.0
2 78 82.9302 103.016 1.05943 0.0404312 -0.258157 0.0
2 79 82.2554 103.438 1.05639 0.851726 0.262382 0.0
2 80 81.6632 103.971 1.06467 1.21974 -0.636953 0.0
3 1 224.491 297.267 5.18126e-05 1.5803 0.756969 0.0
3 2 225.416 297.291 5.11345e-05 0.691277 1.05522 0.0
3 3 225.966 297.89 4.72602e-05 0.841071 1.07969 0.0
3 4 226.736 298.17 1.40499e-05 1.48636 0.306509 0.0
3 5 227.357 298.708 2.96549e-05 0.405677 0.563628 0.0
3 6 228.126 298.954 0.0 -0.419448 -0.421764 0.0
3 7 228.906 299.204 4.2045e-06 0.721535 1.04058 0.0
3 8 229.683 299.371 7.56052e-06 1.3671 -0.544801 0.0
3 9 230.494 299.258 2.66359e-06 -1.30343 1.4454 0.0
3 10 231.272 298.978 4.46244e-06 0.406058 1.82301 0.0
3 11 232.072 299.152 1.44139e-05 -0.512016 1.60584 0.0
3 12 232.877 299.144 1.93545e-05 1.2644 -0.333049 0.0
3 13 233.627 299.568 1.31525e-05 -0.260698 -0.332441 0.0
3 14 234.422 299.559 3.11153e-06 1.11391 -1.32268 0.0
3 15 235.255 299.662 1.91468e-05 0.482873 -0.700902 0.0
3 16 235.949 299.006 5.26302e-06 0.191488 -0.465521 0.0
3 17 236.756 299.09 3.22895e-05 0.182805 0.153931 0.0
3 18 237.544 299.099 4.72761e-06 0.530177 0.233482 0.0
3 19 238.296 298.629 9.44001e-06 -0.558354 0.890247 0.0
3 20 239.08 298.633 4.31616e-07 0.770596 0.315158 0.0
3 21 239.877 298.513 8.83758e-06 -0.11788 0.205591 0.0
3 22 240.631 298.285 2.75688e-06 1.15921 0.955933 0.0
3 23 241.461 298.253 1.77001e-05 1.66216 -0.406688 0.0
3 24 242.183 297.893 4.85947e-07 0.445924 0.664031 0.0
3 25 242.966 297.747 1.76377e-05 1.60512 -0.0791508 0.0
3 26 243.709 297.386 1.95132e-05 0.693789 0.771637 0.0
3 27 244.442 297.077 6.19386e-05 0.537403 -0.965558 0.0
3 28 245.257 296.971 6.4244e-05 0.0387162 0.528036 0.0
3 29 246.022 296.798 7.22467e-05 0.811394 -0.127041 0.0
3 30 246.838 297.001 3.42833e-05 1.58569 -0.863685 0.0
3 31 247.567 296.408 3.76565e-05 -0.84619 0.0760329 0.0
3 32 248.362 296.519 2.0166e-05 0.685585 0.272494 0.0
3 33 249.167 296.339 5.6442e-05 1.57531 1.86503 0.0
3 34 249.872 295.89 9.46168e-05 0.0478457 -1.32559 0.0
3 35 250.457 295.397 0.00011226 1.3081 1.09254 0.0
3 36 251.049 294.811 3.99215e-06 -0.506305 -0.0574771 0.0
3 37 251.51 294.16 6.1515e-05 1.02604 -0.951007 0.0
3 38 252.227 293.713 3.89559e-05 -0.282001 -0.40126 0.0
3 39 252.992 293.527 2.71961e-05 0.959993 0.83314 0.0
3 40 253.833 293.535 2.51131e-05 0.741548 0.172904 0.0
3 41 254.541 293.114 2.9962e-06 -0.718062 -1.07322 0.0
3 42 255.309 292.899 2.76497e-06 0.274404 -0.0860102 0.0
3 43 256.14 293.234 0.0 -0.427996 -0.0803349 0.0
3 44 256.923 292.839 3.1783e-05 1.50506 -0.0720307 0.0
3 45 257.708 293.041 4.10455e-06 0.524663 0.327128 0.0
3 46 258.491 292.725 2.34461e-07 0.879297 0.211459 0.0
3 47 259.316 292.855 1.15563e-05 0.969577 0.448103 0.0
3 48 260.127 292.999 2.6959e-05 -1.02583 -0.989981 0.0
3 49 260.906 292.991 7.8557e-05 0.667558 -0.707479 0.0
3 50 261.689 292.837 1.97347e-05 -0.00244564 -0.628819 0.0
3 51 262.53 292.817 1.77029e-05 0.150121 0.670721 0.0
3 52 263.246 292.511 9.30715e-06 0.896674 1.07219 0.0
3 53 263.899 291.975 1.42379e-05 0.598759 0.113935 0.0
3 54 264.688 291.806 3.18217e-05 1.71986 0.93503 0.0
3 55 265.44 291.551 2.9622e-06 0.138453 -1.13696 0.0
3 56 266.208 291.423 0.0 0.778975 -1.25671 0.0
3 57 266.954 291.07 2.06829e-05 0.295587 -1.59014 0.0
3 58 267.775 291.04 2.23126e-06 -0.217268 -2.15547 0.0
3 59 268.389 290.423 1.96194e-05 0.0681995 -0.515181 0.0
3 60 269.232 290.332 8.60534e-06 1.29882 -0.984918 0.0
3 61 269.858 289.803 7.6003e-06 -0.236512 -0.113592 0.0
3 62 270.644 289.529 2.75412e-05 0.142979 -0.40193 0.0
3 63 271.265 289.023 7.0362e-06 -0.173958 -1.29248 0.0
3 64 271.772 288.383 5.7429e-05 -0.0103603 -2.29125 0.0
3 65 272.155 287.676 7.45769e-05 0.387115 -0.0535359 0.0
3 66 272.929 287.25 0.000265688 1.27778 1.50536 0.0
3 67 273.296 286.548 0.000109177 1.07721 -2.48811 0.0
3 68 273.941 286.043 8.34612e-05 1.19592 -1.01215 0.0
3 69 274.569 285.523 3.41656e-05 1.64162 -0.515287 0.0
3 70 274.877 284.73 3.63127e-05 0.447696 0.662286 0.0
3 71 275.463 284.184 3.55974e-05 -0.290484 -0.504071 0.0
3 72 275.945 283.525 1.24162e-05 -0.752072 -0.282591 0.0
3 73 276.62 283.071 1.61862e-05 0.156753 -0.656767 0.0
3 74 277.419 282.89 2.67861e-06 -0.338477 -0.963845 0.0
3 75 278.146 282.63 1.62096e-05 -0.284869 -1.06308 0.0
3 76 278.946 282.411 8.87401e-06 1.02781 -1.16168 0.0
3 77 279.702 282.179 3.44833e-05 -0.587328 0.878757 0.0
3 78 280.431 281.734 9.55417e-06 -0.934505 0.30606 0.0
3 79 281.263 281.864 1.57949e-05 0.0712005 1.40678 0.0
3 80 281.92 281.172 1.765e-05 -0.320011 -0.415662 0.0
4 1 64.3831 121.289 0.0 -0.34539 0.481396 0.0
4 2 64.3475 122.137 5.96977e-05 0.824492 0.640915 0.0
4 3 64.0112 122.862 0.0 -0.705281 0.418903 0.0
4 4 63.7038 123.614 1.34911e-05 -0.123281 -0.127776 0.0
4 5 63.8086 124.467 0.0 1.35113 -1.67504 0.0
4 6 63.3155 125.132 9.88418e-06 1.10775 0.532572 0.0
4 7 63.2125 125.906 0.0 -0.0145191 -0.241455 0.0
4 8 63.0992 126.724 0.000135568 -0.603711 0.628789 0.0
4 9 62.591 127.369 0.0 1.12909 -0.835318 0.0
4 10 62.448 128.179 8.82974e-06 -0.0745191 -0.453707 0.0
4 11 61.6919 128.688 2.64739e-06 -0.132193 1.18109 0.0
4 12 61.5004 129.5 1.01506e-05 0.651303 0.279604 0.0
4 13 61.2951 130.258 1.22743e-05 -0.914659 0.322334 0.0
4 14 61.1224 131.046 6.1769e-06 1.67928 0.741739 0.0
4 15 61.2426 131.876 4.49743e-06 -0.413932 0.586233 0.0
4 16 61.0411 132.67 1.0386e-06 -1.47396 0.830467 0.0
4 17 61.042 133.446 1.81162e-06 0.18704 -0.552064 0.0
4 18 60.9966 134.269 2.0943e-06 0.0557033 0.923893 0.0
4 19 60.7151 135.032 6.20026e-08 0.339756 -1.00544 0.0
4 20 60.3438 135.705 6.86989e-06 0.117752 0.790041 0.0
4 21 59.8319 136.361 5.88837e-07 0.337224 0.752642 0.0
4 22 60.0713 137.281 1.04572e-06 0.170485 0.209762 0.0
4 23 59.4668 137.93 2.30786e-06 2.02931 1.59368 0.0
4 24 59.6182 138.776 1.04955e-06 0.499097 0.842548 0.0
4 25 59.1994 139.521 8.9456e-06 -2.55467 1.59125 0.0
4 26 59.5045 140.406 7.26157e-06 1.04754 -0.180331 0.0
4 27 59.193 141.148 7.95701e-06 -0.467278 -0.0792594 0.0
4 28 58.8201 141.86 5.69707e-06 -0.191936 0.800788 0.0
4 29 58.8142 142.71 1.73678e-05 -0.507859 0.760722 0.0
4 30 58.6174 143.44 3.03468e-06 -0.863149 1.54815 0.0
4 31 58.405 144.264 8.6581e-06 -0.720445 1.85658 0.0
4 32 58.5122 145.062 1.64117e-06 -1.10926 0.897658 0.0
4 33 58.6314 145.866 2.64114e-05 -0.109523 0.245798 0.0
4 34 58.4773 146.656 4.72071e-06 -1.11619 2.00769 0.0
4 35 58.2711 147.423 2.56804e-06 -1.44179 -0.676209 0.0
4 36 58.218 148.254 7.19834e-06 -0.787231 0.574313 0.0
4 37 58.0403 148.992 4.8341e-07 -0.109373 1.7059 0.0
4 38 58.4316 149.832 3.46625e-06 0.383652 0.23271 0.0
4 39 57.8612 150.602 3.98814e-06 0.711601 0.479447 0.0
4 40 58.004 151.365 2.64436e-05 -0.367021 0.30675 0.0
4 41 58.0418 152.223 2.42991e-05 -0.28084 -0.211336 0.0
4 42 58.5052 152.881 6.19405e-06 0.14003 -0.115412 0.0
4 43 59.0131 153.482 1.29924e-05 0.86147 0.812481 0.0
4 44 59.8296 153.79 0.0 -0.961922 0.378725 0.0
4 45 60.245 154.524 2.6586e-05 0.410935 0.267656 0.0
4 46 60.8432 155.042 2.13161e-06 -1.16975 0.635152 0.0
4 47 60.9257 155.918 7.1139e-06 0.942824 0.16316 0.0
4 48 61.7586 156.362 0.0 -0.362303 0.0985258 0.0
4 49 61.9872 157.102 3.51069e-05 1.47132 0.418315 0.0
4 50 62.3165 157.869 1.92991e-05 0.321944 -0.115543 0.0
4 51 62.6257 158.581 6.15034e-05 0.545177 1.04978 0.0
4 52 62.9937 159.317 1.95155e-05 0.857873 0.261548 0.0
4 53 63.655 159.817 4.6435e-06 -1.03239 -0.384508 0.0
4 54 64.0428 160.493 7.76803e-06 0.358152 0.201451 0.0
4 55 64.2102 161.33 9.00424e-06 -1.55532 -0.671785 0.0
4 56 64.3918 162.057 6.58129e-05 -0.614939 0.376989 0.0
4 57 65.0331 162.681 6.28676e-06 0.142129 0.793821 0.0
4 58 65.157 163.452 2.43249e-05 0.570746 -0.179799 0.0
4 59 65.2859 164.256 4.68793e-06 1.08722 0.98809 0.0
4 60 64.924 165.018 4.13323e-06 -2.19322 1.36555 0.0
4 61 65.0521 165.832 6.21354e-06 -0.0077595 0.753892 0.0
4 62 65.0016 166.625 3.69958e-05 -1.00672 1.59973 0.0
4 63 64.8604 167.433 4.49704e-06 0.0726092 -0.00634544 0.0
4 64 64.8109 168.227 9.41699e-05 0.269884 1.88161 0.0
4 65 64.8969 168.995 7.60406e-06 1.07076 1.86225 0.0
4 66 64.3695 169.794 5.85948e-05 1.91372 -0.149532 0.0
4 67 64.9666 170.561 2.86757e-06 -1.40375 1.45338 0.0
4 68 64.6984 171.372 0.0 0.159395 0.265205 0.0
4 69 64.7178 172.173 1.11219e-07 1.3968 1.39406 0.0
4 70 64.7958 172.964 1.26176e-05 -1.34838 -1.22911 0.0
4 71 65.0753 173.765 1.24382e-06 -0.431373 -0.39902 0.0
4 72 64.9735 174.557 2.30438e-05 -1.51667 0.807745 0.0
4 73 65.0595 175.351 5.68591e-06 0.204992 0.562068 0.0
4 74 65.0159 176.142 9.10002e-06 0.0304447 2.02789 0.0
4 75 65.2327 176.952 2.8898e-07 -1.50517 -0.444952 0.0
4 76 65.6046 177.623 4.13452e-06 0.748621 0.523997 0.0
4 77 65.5197 178.49 3.68489e-06 -1.503 0.790635 0.0
4 78 66.05 179.174 0.0 -0.838406 0.65272 0.0
4 79 66.0623 180.005 1.25847e-05 -0.973403 0.941732 0.0
4 80 66.1593 180.826 4.79982e-06 -1.4034 -0.574981 0.0
5 1 81.7022 203.81 1.0752 0.129246 -1.12411 0.0
5 2 81.2529 204.456 1.07511 0.312213 -1.40625 0.0
5 3 81.0385 205.269 1.08043 0.224302 0.861206 0.0
5 4 80.4927 205.894 1.07848 0.236595 -0.561262 0.0
5 5 80.2198 206.635 1.07787 0.0272701 0.355543 0.0
5 6 80.1163 207.441 1.0751 -0.106458 1.07666 0.0
5 7 79.7184 208.156 1.07996 1.16529 0.483673 0.0
5 8 79.3589 208.864 1.07024 0.0931809 -0.235438 0.0
5 9 79.3922 209.721 1.07832 -0.580605 -0.419166 0.0
5 10 78.9634 210.405 1.07072 -0.0867418 1.67705 0.0
5 11 78.6831 211.191 1.07948 1.38995 0.666563 0.0
5 12 78.4056 211.9 1.06941 0.043844 0.198354 0.0
5 13 78.3901 212.754 1.08305 0.0305106 0.709074 0.0
5 14 77.7214 213.371 1.06993 0.544457 0.494302 0.0
5 15 77.6033 214.153 1.08276 0.709525 0.0304747 0.0
5 16 77.2005 214.869 1.06301 0.432337 1.50837 0.0
5 17 77.7453 215.756 1.0721 -0.403941 -0.101027 0.0
5 18 77.1014 216.481 1.06166 -0.455372 1.15105 0.0
5 19 77.322 217.293 1.06565 -0.185911 0.26596 0.0
5 20 77.1074 218.096 1.05258 0.0698269 0.199862 0.0
5 21 77.2623 218.882 1.05827 -0.179312 2.00811 0.0
5 22 77.7007 219.608 1.05211 0.584205 0.234348 0.0
5 23 78.2796 220.157 1.06224 -0.542433 1.51295 0.0
5 24 78.3672 221.068 1.04813 -0.457118 0.671284 0.0
5 25 79.2846 221.413 1.05786 -0.614121 0.626935 0.0
5 26 79.4787 222.234 1.0462 1.04764 0.83643 0.0
5 27 79.9659 222.843 1.05769 -0.626447 1.38097 0.0
5 28 80.242 223.637 1.05071 -0.128576 0.515039 0.0
5 29 80.8487 224.201 1.06924 0.292127 -0.00236709 0.0
5 30 81.1546 224.929 1.05694 -0.106232 -0.120389 0.0
5 31 82.0807 225.182 1.06657 0.375517 0.682053 0.0
5 32 82.2595 226.098 1.05806 0.485892 0.62752 0.0
5 33 82.9713 226.5 1.06618 -0.404949 1.68348 0.0
5 34 83.4127 227.18 1.05233 -0.197738 -1.74283 0.0
5 35 84.2451 227.463 1.06057 0.566943 -0.0948879 0.0
5 36 84.5762 228.261 1.05375 0.699552 -0.456485 0.0
5 37 85.2149 228.727 1.0692 0.259229 -1.15542 0.0
5 38 85.6874 229.378 1.06351 -0.0700065 1.56001 0.0
5 39 86.4976 229.665 1.0773 0.38145 1.8165 0.0
5 40 87.0311 230.276 1.06547 -0.181232 0.431926 0.0
5 41 87.5973 230.839 1.07451 1.07348 0.0311294 0.0
5 42 88.0192 231.537 1.06025 -0.516492 0.312115 0.0
5 43 88.5948 232.096 1.07224 1.5519 -0.650693 0.0
5 44 89.2879 232.512 1.06332 0.681129 0.991649 0.0
5 45 89.9848 232.894 1.08094 0.357781 1.08335 0.0
5 46 90.5772 233.457 1.06812 0.753835 1.68148 0.0
5 47 91.3486 233.749 1.08786 0.871308 1.32827 0.0
5 48 92.085 234.015 1.06835 0.84942 -0.5115 0.0
5 49 92.9393 233.888 1.08552 -0.540311 0.22222 0.0
5 50 93.6285 234.451 1.06971 1.02777 0.662243 0.0
5 51 94.4728 234.326 1.0877 -0.353836 0.898555 0.0
5 52 95.2456 234.444 1.07033 0.540182 -1.20192 0.0
5 53 95.9652 234.837 1.08157 0.0246681 -0.0682848 0.0
5 54 96.6763 235.181 1.07195 -0.357131 0.822037 0.0
5 55 97.4915 235.23 1.08573 0.820868 -0.518461 0.0
5 56 98.2567 235.6 1.08217 0.578176 0.17115 0.0
5 57 98.8035 236.16 1.07662 1.10314 0.532386 0.0
5 58 99.0779 236.981 1.07249 -0.764694 1.55365 0.0
5 59 99.6978 237.511 1.06307 0.797888 0.686144 0.0
5 60 100.402 237.911 1.05782 0.891488 0.715013 0.0
5 61 100.751 238.705 1.07693 0.939691 -0.0143759 0.0
5 62 101.572 239.001 1.07983 1.35228 0.23581 0.0
5 63 101.796 239.911 1.08414 0.780705 -0.732534 0.0
5 64 102.664 240.187 1.08362 -1.77722 1.43117 0.0
5 65 102.967 240.995 1.08438 -0.476312 0.503718 0.0
5 66 103.557 241.506 1.07938 1.60004 0.265545 0.0
5 67 104.224 241.983 1.08227 2.16799 -0.0949955 0.0
5 68 104.969 242.28 1.07811 1.73578 1.22691 0.0
5 69 105.713 242.57 1.0842 0.669029 0.480094 0.0
5 70 106.47 242.897 1.08263 -0.0336378 1.46998 0.0
5 71 107.151 243.296 1.08533 0.903979 -0.231907 0.0
5 72 107.706 243.925 1.08326 1.4558 0.496901 0.0
5 73 108.432 244.268 1.08398 -0.0683875 -0.271952 0.0
5 74 109.149 244.586 1.0839 -0.0845401 0.204245 0.0
5 75 109.657 245.288 1.08327 0.480582 0.0511897 0.0
5 76 110.405 245.558 1.08057 -0.252819 0.367938 0.0
5 77 111.167 245.863 1.07772 0.0786805 -0.0347842 0.0
5 78 111.822 246.325 1.07859 0.4684 0.213293 0.0
5 79 112.36 246.981 1.07734 -0.309007 0.0642006 0.0
5 80 113.302 246.945 1.0806 0.398842 1.2346 0.0
6 1 277.21 42.6788 0.0 1.34233 -0.409919 0.0
6 2 277.332 43.4546 3.10814e-05 -1.20919 0.170055 0.0
6 3 277.341 44.2605 1.16664e-05 0.283059 1.53337 0.0
6 4 277.714 45.0093 1.0152e-05 -0.698522 1.30038 0.0
6 5 278.074 45.681 0.0 -0.0366215 -0.0656493 0.0
6 6 278.44 46.4655 0.0 -1.81181 -1.2991 0.0
6 7 279.083 46.9686 2.74622e-06 -1.82902 -0.17859 0.0
6 8 279.598 47.5359 8.53341e-06 0.518542 -0.555749 0.0
6 9 280.398 47.7864 5.95211e-06 0.0930592 -0.26941 0.0
6 10 281.057 48.2315 1.17505e-05 -0.123584 -0.351241 0.0
6 11 281.828 48.4927 2.46952e-06 -0.912664 2.32158 0.0
6 12 282.657 48.4996 3.72972e-05 0.280397 -0.680955 0.0
6 13 283.372 48.8947 9.17328e-06 -0.545405 0.000919618 0.0
6 14 284.218 48.7468 8.98546e-06 0.0594997 0.492737 0.0
6 15 284.993 49.0153 1.87436e-05 -1.31386 0.193168 0.0
6 16 285.781 49.217 1.72675e-07 -0.760082 -0.512699 0.0
6 17 286.518 49.5224 1.52114e-05 1.317 1.25979 0.0
6 18 287.18 49.9784 2.77627e-05 0.153425 -0.191957 0.0
6 19 287.815 50.4644 9.39024e-06 1.7964 -0.490968 0.0
6 20 288.473 50.9484 5.01804e-06 -0.732904 -1.15129 0.0
6 21 289.048 51.5091 4.45978e-05 -0.764478 0.505035 0.0
6 22 289.324 52.3129 6.0829e-06 1.20706 0.716612 0.0
6 23 289.578 53.0631 3.22033e-05 -0.697727 1.17593 0.0
6 24 289.817 53.8571 0.0 -0.589311 -0.663528 0.0
6 25 289.834 54.6705 0.0 -2.52954 0.690732 0.0
6 26 289.982 55.4404 1.67384e-06 0.709331 1.47669 0.0
6 27 290.522 56.1308 3.48812e-06 -0.868184 0.346756 0.0
6 28 290.491 56.9749 1.27597e-05 1.71857 0.809167 0.0
6 29 290.666 57.7335 8.09508e-06 -1.87688 -0.000314235 0.0
6 30 290.836 58.5257 5.02724e-06 -0.716267 0.785045 0.0
6 31 291.155 59.3019 3.76213e-06 -0.593811 0.583452 0.0
6 32 291.22 60.0704 1.37667e-05 0.0913587 0.681027 0.0
6 33 291.266 60.9097 8.89e-08 0.0406526 -0.0674532 0.0
6 34 291.884 61.5197 4.39919e-06 -2.12201 0.980619 0.0
6 35 291.839 62.3803 2.14828e-06 0.724056 -0.223279 0.0
6 36 292.359 63.0449 3.62513e-05 2.51932 0.0773093 0.0
6 37 292.604 63.8227 2.42935e-06 0.580528 -0.56541 0.0
6 38 292.926 64.5658 3.85593e-05 0.664412 0.211847 0.0
6 39 293.666 64.9916 4.28584e-06 0.66383 -0.90957 0.0
6 40 294.185 65.5787 2.27649e-05 0.803202 -0.172627 0.0
6 41 294.418 66.3813 0.0 -1.24939 0.357062 0.0
6 42 294.844 67.0386 4.84624e-05 -0.951115 -0.702479 0.0
6 43 295.274 67.7386 6.0122e-06 1.35479 -0.42703 0.0
6 44 295.776 68.3422 5.63807e-07 1.47048 -0.728585 0.0
6 45 296.523 68.7989 8.15681e-06 -0.138087 0.0374058 0.0
6 46 296.827 69.5523 5.58492e-06 1.26587 -0.231708 0.0
6 47 297.378 70.1506 2.22896e-07 -1.6785 0.167696 0.0
6 48 297.808 70.8261 1.40053e-05 -0.559371 -1.35667 0.0
6 49 298.259 71.4569 1.47051e-06 1.42613 1.17883 0.0
6 50 298.331 72.3568 1.24101e-05 0.943264 -0.45072 0.0
6 51 298.896 72.9662 1.31702e-07 -0.69541 0.201485 0.0
6 52 299.237 73.6843 1.01034e-05 -1.67836 1.43864 0.0
6 53 299.408 74.488 4.72646e-06 0.0157048 1.02355 0.0
6 54 299.498 75.2782 2.59774e-05 0.885024 -1.13502 0.0
6 55 299.924 75.9722 6.40729e-06 -0.560406 1.608 0.0
6 56 300.115 76.7403 1.26286e-05 -1.24057 -0.314958 0.0
6 57 300.412 77.5151 1.22319e-06 0.300812 -1.31269 0.0
6 58 300.413 78.3099 7.22143e-06 0.250228 0.0437512 0.0
6 59 300.648 79.0827 5.81116e-06 0.372 0.382484 0.0
6 60 300.613 79.9225 6.60288e-06 0.703267 -1.93149 0.0
6 61 300.702 80.695 1.20512e-05 0.651342 -0.644785 0.0
6 62 300.972 81.449 9.96267e-06 0.227173 0.294764 0.0
6 63 300.884 82.283 1.18078e-05 -1.28156 0.686772 0.0
6 64 300.96 83.0738 1.20656e-05 0.998334 -1.02119 0.0
6 65 301.214 83.8356 1.16984e-05 0.375034 -0.784658 0.0
6 66 301.443 84.6052 6.55414e-06 -1.62776 -0.179519 0.0
6 67 301.43 85.4234 5.45482e-06 -1.53185 -0.643072 0.0
6 68 301.549 86.21 4.1399e-06 -1.39817 -0.839876 0.0
6 69 301.749 87.0121 2.9492e-06 -1.19284 -0.716617 0.0
6 70 301.966 87.7277 1.49643e-05 0.00704994 0.549743 0.0
6 71 302.271 88.5368 1.09063e-05 -0.706018 0.446044 0.0
6 72 302.565 89.2251 3.97659e-05 -1.03835 0.489801 0.0
6 73 303.134 89.8414 1.15743e-05 0.0311271 -1.16616 0.0
6 74 303.571 90.4662 1.09675e-05 -0.723205 1.26968 0.0
6 75 303.752 91.3108 1.81256e-05 1.61402 -0.114987 0.0
6 76 304.031 92.0564 2.84207e-05 1.83735 -0.235953 0.0
6 77 304.368 92.8068 1.61677e-05 -0.195011 0.786805 0.0
6 78 305.056 93.2993 2.90897e-06 -1.01054 0.562936 0.0
6 79 305.084 94.2018 9.5456e-06 0.328178 -0.254564 0.0
6 80 305.954 94.6013 2.02029e-05 -0.0413731 0.846114 0.0
7 1 114.54 261.147 1.0753 0.604935 0.379507 0.0
7 2 114.461 260.24 1.0758 0.00462929 1.30099 0.0
7 3 113.903 259.664 1.0704 -0.29533 0.191376 0.0
7 4 113.524 258.983 1.07548 0.81508 -1.83098 0.0
7 5 113.18 258.238 1.06897 0.22681 -0.623671 0.0
7 6 112.77 257.525 1.07806 0.639713 0.0955 0.0
7 7 112.306 256.894 1.0667 0.720406 0.678031 0.0
7 8 111.983 256.136 1.0844 0.992225 0.172815 0.0
7 9 111.177 255.718 1.07145 0.980891 -0.194802 0.0
7 10 111.038 254.832 1.08971 -0.381091 1.16157 0.0
7 11 110.503 254.276 1.06579 0.313231 0.125742 0.0
7 12 109.97 253.661 1.10004 0.169427 0.979038 0.0
7 13 109.271 253.231 1.06484 0.248452 0.298624 0.0
7 14 108.621 252.802 1.11074 0.677397 -1.25137 0.0
7 15 107.798 252.579 1.05411 0.188032 0.616597 0.0
7 16 107.11 252.169 1.10858 0.274928 0.0486672 0.0
7 17 106.535 251.566 1.0485 0.541015 1.13678 0.0
7 18 105.826 251.189 1.11454 0.112861 -0.604788 0.0
7 19 105.162 250.8 1.05901 -0.587236 -0.668803 0.0
7 20 104.29 250.712 1.11886 0.890947 -0.163519 0.0
7 21 103.628 250.254 1.04497 -0.100969 0.0990875 0.0
7 22 102.897 249.907 1.13014 -0.489003 1.05572 0.0
7 23 102.205 249.524 1.04901 -0.272477 0.486701 0.0
7 24 101.607 248.949 1.14456 -0.358607 0.33151 0.0
7 25 100.779 248.85 1.04063 -0.00402967 -0.723861 0.0
7 26 100.296 248.059 1.12904 1.34545 -1.30428 0.0
7 27 99.3687 248.086 1.03094 0.31079 0.165028 0.0
7 28 98.7263 247.678 1.15452 0.147223 -0.933986 0.0
7 29 98.0827 247.169 1.05124 -1.10308 0.213158 0.0
7 30 97.5387 246.592 1.16206 1.30044 -1.11716 0.0
7 31 96.9775 246.004 1.05537 0.668365 -0.412531 0.0
7 32 96.4635 245.415 1.13914 0.7877 -0.848236 0.0
7 33 95.9279 244.783 1.05559 0.0977478 -0.478713 0.0
7 34 95.1835 244.439 1.11465 -0.43452 0.138065 0.0
7 35 94.4534 244.161 1.05337 0.120543 0.887344 0.0
7 36 93.7044 243.883 1.10337 -0.839702 -0.847125 0.0
7 37 93.0496 243.409 1.04934 -0.755483 0.278554 0.0
7 38 92.3179 243.018 1.09723 0.539982 0.393704 0.0
7 39 91.7172 242.502 1.04438 -0.824539 0.373794 0.0
7 40 91.2039 241.868 1.09194 -0.0366074 0.529741 0.0
7 41 90.3251 241.708 1.04255 -0.780176 0.532429 0.0
7 42 89.9295 240.847 1.08446 -0.160895 1.76594 0.0
7 43 89.1463 240.587 1.04693 -0.397084 1.8015 0.0
7 44 88.4643 240.22 1.08919 -0.306324 0.573169 0.0
7 45 87.8305 239.724 1.04356 0.08236 1.71463 0.0
7 46 87.3022 239.071 1.09048 -0.138096 0.523303 0.0
7 47 86.5227 238.818 1.04431 0.841899 -0.0114029 0.0
7 48 85.9716 238.174 1.08654 0.0226796 0.495191 0.0
7 49 85.2064 237.916 1.05312 0.647481 -0.338168 0.0
7 50 84.503 237.53 1.09946 -0.034475 0.175078 0.0
7 51 83.9129 236.968 1.05499 -0.619691 0.916278 0.0
7 52 83.4494 236.29 1.1075 0.916226 -0.0434206 0.0
7 53 82.7593 235.867 1.05722 0.246002 -0.279413 0.0
7 54 82.2653 235.199 1.10107 0.721497 -0.683384 0.0
7 55 81.6957 234.671 1.04836 0.938912 -0.801012 0.0
7 56 81.0071 234.228 1.10269 -6.52383e-05 0.2488 0.0
7 57 80.4066 233.705 1.05138 -0.188588 -0.119608 0.0
7 58 79.9078 233.068 1.08255 -0.123278 0.559731 0.0
7 59 79.6322 232.279 1.05481 -0.718987 -0.819998 0.0
7 60 79.0336 231.725 1.0738 0.264125 1.16106 0.0
7 61 78.5204 231.116 1.05703 -0.345216 -0.265019 0.0
7 62 78.0388 230.473 1.0761 0.0164517 0.0275925 0.0
7 63 77.4926 229.896 1.06738 -0.258932 -0.281283 0.0
7 64 77.1251 229.164 1.08096 -0.950035 0.682436 0.0
7 65 76.5156 228.614 1.06538 0.0247721 0.181822 0.0
7 66 76.0177 228.006 1.07524 0.798192 0.347215 0.0
7 67 75.8642 227.18 1.07054 -0.614042 0.0458572 0.0
7 68 75.3028 226.572 1.07927 -0.0711107 0.434991 0.0
7 69 75.0704 225.784 1.07703 1.02935 -0.0234287 0.0
7 70 74.6145 225.131 1.07359 -0.0290467 0.950252 0.0
7 71 74.2135 224.441 1.08003 0.318599 -0.594285 0.0
7 72 74.0168 223.629 1.0763 0.0362266 1.08549 0.0
7 73 73.4785 223.011 1.08169 0.646464 0.182583 0.0
7 74 73.3531 222.204 1.07209 0.812153 -0.823918 0.0
7 75 72.8478 221.547 1.07582 0.217855 -0.618212 0.0
7 76 72.8877 220.667 1.06392 0.128635 0.720417 0.0
7 77 72.3642 220.021 1.07494 0.270567 0.228268 0.0
7 78 72.2008 219.223 1.07156 0.765717 -0.618694 0.0
7 79 71.8071 218.52 1.07502 0.448885 -0.323496 0.0
7 80 72.032 217.62 1.07079 0.728785 0.248445 0.0
8 1 225.144 283.176 1.6778e-05 1.61755 -1.13486 0.0
8 2 225.91 282.978 1.93778e-05 0.242765 0.638888 0.0
8 3 226.631 282.654 1.71856e-05 0.974462 -2.61916 0.0
8 4 227.215 282.056 2.52438e-05 -0.0258013 1.95483 0.0
8 5 227.759 281.454 2.12786e-05 0.26073 -0.106419 0.0
8 6 228.441 281.052 4.95006e-06 -1.50771 -0.142286 0.0
8 7 229.165 280.623 2.94029e-06 0.332388 -0.0554578 0.0
8 8 229.971 280.575 1.61151e-05 0.873155 -1.27023 0.0
8 9 230.765 280.557 1.59148e-05 -0.718834 -0.207214 0.0
8 10 231.596 280.478 5.68784e-06 -1.28421 -1.00888 0.0
8 11 232.347 280.784 2.42679e-05 -0.557839 0.205618 0.0