# 4272000
#nworms:800
#np:80
1 1 315.123 208.761 1.20486 0.154508 0.00664478 0.0
1 2 315.22 209.581 1.26894 0.0415657 0.0936461 0.0
1 3 314.972 210.352 1.24975 -0.0241746 0.00861763 0.0
1 4 314.887 211.146 1.30027 0.0351872 0.048866 0.0
1 5 314.751 211.937 1.25313 -0.219395 0.022971 0.0
1 6 314.734 212.739 1.30533 -0.0177302 0.0134012 0.0
1 7 314.665 213.535 1.25454 0.132158 0.0389628 0.0
1 8 314.64 214.335 1.30457 -0.0264168 0.0236394 0.0
1 9 314.581 215.133 1.25667 -0.289876 0.00285361 0.0
1 10 314.496 215.928 1.30457 0.0470263 0.0229225 0.0
1 11 314.56 216.733 1.25474 0.0920205 0.0337061 0.0
1 12 314.454 217.527 1.30096 0.0418722 0.033136 0.0
1 13 314.403 218.327 1.25593 0.0318548 0.0258346 0.0
1 14 314.142 219.096 1.29958 -0.243819 -0.00740106 0.0
1 15 314.108 219.9 1.25308 0.0680079 0.0376182 0.0
1 16 313.966 220.686 1.29146 -0.00615038 0.0275909 0.0
1 17 313.761 221.464 1.2417 -0.164289 -0.00523528 0.0
1 18 313.733 222.269 1.28009 0.0735224 0.0384494 0.0
1 19 313.618 223.059 1.21846 -0.0345456 0.0243612 0.0
1 20 313.457 223.846 1.25922 -0.0485647 0.014849 0.0
1 21 313.186 224.601 1.19407 0.0448121 0.047373 0.0
1 22 312.978 225.373 1.23628 -0.0210761 0.0307833 0.0
1 23 312.688 226.119 1.1682 0.0181988 0.0267752 0.0
1 24 312.451 226.884 1.21837 -0.106723 0.00481601 0.0
1 25 312.238 227.655 1.16318 -0.0901716 0.00959348 0.0
1 26 312.102 228.447 1.22801 -0.0838494 0.000740805 0.0
1 27 311.78 229.188 1.17697 0.109541 0.0549317 0.0
1 28 311.603 229.968 1.24128 -0.115632 -0.015754 0.0
1 29 311.371 230.733 1.19191 -0.372776 -0.0714792 0.0
1 30 311.173 231.509 1.26341 0.0372629 0.0298462 0.0
1 31 310.988 232.29 1.21084 -0.0903227 -0.000891896 0.0
1 32 310.587 232.998 1.27446 -0.0600216 0.0433586 0.0
1 33 310.363 233.765 1.22295 -0.180233 -0.0256924 0.0
1 34 310.143 234.535 1.28926 0.0914444 0.0720284 0.0
1 35 309.93 235.306 1.23964 -0.28149 -0.0356617 0.0
1 36 309.666 236.061 1.30073 -0.128208 0.00163368 0.0
1 37 309.434 236.827 1.24778 -0.1954 -0.0179056 0.0
1 38 309.143 237.573 1.30945 -0.0313067 0.0349636 0.0
1 39 308.785 238.291 1.25728 -0.0703452 0.0368128 0.0
1 40 308.354 238.967 1.3127 -0.0022495 0.0574309 0.0
1 41 307.851 239.591 1.2568 -0.0955192 0.0193592 0.0
1 42 307.441 240.281 1.31248 -0.0488593 0.0382809 0.0
1 43 306.886 240.866 1.26254 0.0410247 0.111193 0.0
1 44 306.397 241.496 1.32034 -0.0542126 0.0262961 0.0
1 45 306.002 242.199 1.26882 -0.112086 -0.0142506 0.0
1 46 305.505 242.826 1.32964 -0.0496961 0.0353998 0.0
1 47 305.035 243.472 1.28385 -0.0679512 0.0161164 0.0
1 48 304.54 244.101 1.3456 0.0658685 0.116989 0.0
1 49 304.049 244.733 1.29931 -0.315293 -0.155453 0.0
1 50 303.591 245.386 1.35821 -0.181529 -0.0686837 0.0
1 51 303.177 246.077 1.31349 -0.0600026 0.020967 0.0
1 52 302.623 246.66 1.36164 -0.0541067 0.020917 0.0
1 53 302.114 247.275 1.32971 0.0232757 0.0931181 0.0
1 54 301.568 247.859 1.36314 -0.104635 -0.0170212 0.0
1 55 301.098 248.513 1.33898 -0.224489 -0.132529 0.0
1 56 300.436 248.988 1.36061 -0.126858 -0.0121126 0.0
1 57 299.976 249.654 1.34228 -0.0172847 0.0861097 0.0
1 58 299.35 250.16 1.35643 0.0205225 0.123669 0.0
1 59 298.806 250.747 1.34538 -0.117034 -0.0122202 0.0
1 60 298.242 251.313 1.35796 -0.0343201 0.0811336 0.0
1 61 297.765 251.963 1.34469 0.0625607 0.166234 0.0
1 62 297.107 252.442 1.36273 0.0185785 0.144975 0.0
1 63 296.597 253.058 1.33577 -0.211981 -0.0803848 0.0
1 64 296.064 253.655 1.35955 0.00984279 0.115418 0.0
1 65 295.563 254.278 1.32122 -0.25848 -0.104396 0.0
1 66 295.058 254.899 1.35116 -0.0198965 0.0802664 0.0
1 67 294.504 255.479 1.30776 -0.0415566 0.0773872 0.0
1 68 294.073 256.158 1.35111 0.0915989 0.167026 0.0
1 69 293.573 256.782 1.31689 0.0743917 0.175254 0.0
1 70 293.076 257.409 1.35331 -0.0510288 0.0616014 0.0
1 71 292.656 258.092 1.31581 0.119365 0.180101 0.0
1 72 292.176 258.734 1.36002 -0.268551 -0.0724991 0.0
1 73 291.82 259.453 1.31897 -0.0193925 0.0660211 0.0
1 74 291.34 260.1 1.36259 -0.0599175 0.0605265 0.0
1 75 290.998 260.825 1.31802 -0.135626 -0.0199751 0.0
1 76 290.635 261.538 1.35317 -0.145588 -0.00381784 0.0
1 77 290.229 262.227 1.30535 0.230639 0.213732 0.0
1 78 289.838 262.925 1.32651 0.100808 0.120296 0.0
1 79 289.451 263.626 1.28943 -0.271179 -0.0538979 0.0
1 80 289.076 264.332 1.30448 0.241753 0.185019 0.0
2 1 92.1289 93.7099 0.875676 -0.115727 -0.0858301 0.0
2 2 92.1389 92.9077 0.861362 0.217805 -0.0552908 0.0
2 3 92.2641 92.1179 0.809406 -0.0523301 -0.082491 0.0
2 4 92.2863 91.3153 0.813622 0.252621 -0.0536723 0.0
2 5 92.4027 90.5247 0.757397 0.134621 -0.0699931 0.0
2 6 92.5302 89.7341 0.782494 -0.0617713 -0.0921372 0.0
2 7 92.5286 88.9291 0.724644 -0.0368619 -0.0841878 0.0
2 8 92.6939 88.1437 0.763273 -0.158986 -0.108704 0.0
2 9 92.7807 87.3486 0.703932 0.167876 -0.0537517 0.0
2 10 92.9339 86.5637 0.744203 -0.110462 -0.100859 0.0
2 11 93.1039 85.7811 0.69005 -0.073913 -0.109172 0.0
2 12 93.3238 85.0113 0.735184 0.157922 -0.0399603 0.0
2 13 93.6373 84.2724 0.689831 0.163072 -0.0263617 0.0
2 14 93.9221 83.526 0.74026 0.00324389 -0.0961172 0.0
2 15 94.2995 82.8198 0.696954 0.239131 0.00337422 0.0
2 16 94.5593 82.0566 0.760754 0.0193736 -0.0984026 0.0
2 17 95.0176 81.392 0.722449 0.0364073 -0.0945477 0.0
2 18 95.3706 80.678 0.796494 -0.0219444 -0.132545 0.0
2 19 95.7396 79.9635 0.758995 0.107095 -0.0581215 0.0
2 20 96.2181 79.3209 0.831828 0.0901077 -0.0729465 0.0
2 21 96.7344 78.7075 0.801225 0.0889092 -0.0728418 0.0
2 22 97.1628 78.0331 0.871681 0.0487386 -0.113466 0.0
2 23 97.6429 77.3908 0.841394 -0.0199385 -0.157538 0.0
2 24 98.1093 76.7442 0.905432 0.140706 -0.044039 0.0
2 25 98.5293 76.0607 0.874651 -0.054699 -0.20488 0.0
2 26 98.9527 75.3809 0.925431 0.310549 0.0639964 0.0
2 27 99.5586 74.837 0.894232 0.0594035 -0.125227 0.0
2 28 99.9755 74.147 0.93153 0.041469 -0.154153 0.0
2 29 100.514 73.557 0.909403 0.045448 -0.148961 0.0
2 30 101.056 72.9651 0.922381 0.0256953 -0.175647 0.0
2 31 101.624 72.4021 0.90723 0.118072 -0.0822454 0.0
2 32 102.283 71.9406 0.897003 0.208538 0.0285172 0.0
2 33 102.83 71.3471 0.897388 0.0163321 -0.202704 0.0
2 34 103.526 70.94 0.878295 0.0541433 -0.154845 0.0
2 35 104.125 70.4038 0.897392 -0.0585889 -0.308843 0.0
2 36 104.855 70.0543 0.901609 0.0827468 -0.103893 0.0
2 37 105.475 69.5452 0.941471 0.180924 0.0480752 0.0
2 38 106.135 69.0947 0.971924 0.128604 -0.0258381 0.0
2 39 106.812 68.6727 1.0423 -0.00540353 -0.227265 0.0
2 40 107.46 68.2035 1.07176 0.127039 -0.0198563 0.0
2 41 108.137 67.7801 1.10514 0.136476 -0.00393772 0.0
2 42 108.858 67.4222 1.10762 0.113047 -0.0327099 0.0
2 43 109.498 66.9382 1.1199 0.104882 -0.0380796 0.0
2 44 110.177 66.5173 1.10546 0.110777 -0.0301668 0.0
2 45 110.822 66.0401 1.13278 0.0986438 -0.0386417 0.0
2 46 111.527 65.6591 1.10689 0.173823 0.0782685 0.0
2 47 112.207 65.2388 1.14952 0.0712889 -0.0793496 0.0
2 48 112.881 64.8073 1.11258 0.152985 0.0591962 0.0
2 49 113.517 64.3197 1.15307 0.0986057 -0.0249142 0.0
2 50 114.214 63.9244 1.10683 -0.0642627 -0.2793 0.0
2 51 114.864 63.4561 1.15458 0.186969 0.119738 0.0
2 52 115.557 63.0555 1.11342 0.172218 0.117141 0.0
2 53 116.274 62.6964 1.1631 0.0173217 -0.183911 0.0
2 54 117.013 62.3898 1.11637 0.0656951 -0.094912 0.0
2 55 117.781 62.1597 1.16289 0.049104 -0.124548 0.0
2 56 118.552 61.9383 1.11239 0.0543703 -0.101557 0.0
2 57 119.366 61.9395 1.16686 0.0716759 0.014487 0.0
2 58 120.141 61.7398 1.11703 0.0832566 0.130318 0.0
2 59 120.934 61.6358 1.17041 0.0860483 0.163795 0.0
2 60 121.709 61.4186 1.12302 0.0288795 -0.154118 0.0
2 61 122.512 61.3732 1.17617 0.0474602 -0.0191948 0.0
2 62 123.298 61.2303 1.13253 0.0551418 0.0364811 0.0
2 63 124.08 61.0572 1.18358 0.0466769 0.00650115 0.0
2 64 124.873 60.952 1.14145 0.0522357 0.032399 0.0
2 65 125.658 60.8021 1.19282 0.0563672 0.0407501 0.0
2 66 126.464 60.7704 1.14539 0.0269836 -0.137973 0.0
2 67 127.242 60.5769 1.19523 0.053875 0.0230612 0.0
2 68 128.027 60.4254 1.14911 0.0648121 0.0722934 0.0
2 69 128.81 60.2619 1.20591 0.0522076 -0.0306984 0.0
2 70 129.577 60.0303 1.16646 -0.00728089 -0.211178 0.0
2 71 130.33 59.7619 1.22587 0.026382 -0.0993688 0.0
2 72 131.079 59.4795 1.18272 0.130977 0.181424 0.0
2 73 131.827 59.201 1.24512 0.131654 0.177866 0.0
2 74 132.557 58.8637 1.2042 0.0861263 0.0562653 0.0
2 75 133.323 58.6344 1.26991 0.135873 0.205845 0.0
2 76 134.09 58.4063 1.23151 0.0375231 -0.0909104 0.0
2 77 134.855 58.1752 1.29269 0.0660669 -0.0137389 0.0
2 78 135.603 57.8862 1.26188 0.0332286 -0.101671 0.0
2 79 136.353 57.6101 1.29815 0.0709293 0.0073377 0.0
2 80 137.025 57.151 1.27044 0.0127151 -0.141042 0.0
3 1 62.4325 95.9253 0.112826 0.00694773 -0.125462 0.0
3 2 62.8007 95.2098 0.12537 -0.127722 -0.20967 0.0
3 3 63.249 94.5477 0.0991636 -0.00321155 -0.120325 0.0
3 4 63.7302 93.9076 0.113235 -0.048686 -0.163541 0.0
3 5 64.1879 93.2514 0.073568 0.207749 0.0434599 0.0
3 6 64.6872 92.625 0.092657 -0.181541 -0.269608 0.0
3 7 65.2498 92.052 0.0539511 -0.0894453 -0.194716 0.0
3 8 65.8093 91.4823 0.0824715 0.0616113 -0.0527002 0.0
3 9 66.2354 90.791 0.0512435 -0.0247941 -0.132381 0.0
3 10 66.9117 90.3197 0.0870449 -0.136655 -0.218122 0.0
3 11 67.364 89.6553 0.0545686 0.0219344 -0.0828063 0.0
3 12 67.8829 89.0462 0.0869867 -0.0119431 -0.104958 0.0
3 13 68.3697 88.4109 0.0515068 0.0843043 -0.026334 0.0
3 14 68.879 87.7937 0.0820966 0.0774083 -0.0357717 0.0
3 15 69.3815 87.1707 0.0447617 -0.00486256 -0.0935135 0.0
3 16 69.884 86.5467 0.0656888 -0.0839941 -0.153975 0.0
3 17 70.2776 85.8449 0.0362015 0.0445418 -0.0542403 0.0
3 18 70.7409 85.1916 0.0516956 0.0259421 -0.0744588 0.0
3 19 71.2645 84.5839 0.0322984 -0.0251841 -0.107101 0.0
3 20 71.8502 84.0345 0.041118 0.0669629 -0.0257816 0.0
3 21 72.3732 83.4307 0.0245674 -0.0130474 -0.10642 0.0
3 22 72.9038 82.8297 0.0311014 0.140387 0.0434111 0.0
3 23 73.4668 82.2606 0.0173852 0.22921 0.125651 0.0
3 24 74.1018 81.7669 0.025194 -0.0504038 -0.159863 0.0
3 25 74.6495 81.1834 0.00760456 -0.0118986 -0.130907 0.0
3 26 75.2517 80.6537 0.0197531 0.148968 0.0255433 0.0
3 27 75.7709 80.0424 0.0169835 0.0899972 -0.0284988 0.0
3 28 76.3343 79.4764 0.0718306 0.213128 0.0693844 0.0
3 29 76.8997 78.9079 0.062929 0.06649 -0.0584435 0.0
3 30 77.3514 78.2418 0.124988 0.0181661 -0.100287 0.0
3 31 77.8717 77.6354 0.100334 0.123287 -0.0192103 0.0
3 32 78.4392 77.07 0.173719 0.0876463 -0.0537143 0.0
3 33 78.9408 76.4445 0.143014 0.00488156 -0.119265 0.0
3 34 79.4352 75.8192 0.218758 0.188735 0.00917089 0.0
3 35 79.815 75.1034 0.182576 0.177448 -0.0103402 0.0
3 36 80.3276 74.4909 0.257672 0.083761 -0.0739663 0.0
3 37 80.8633 73.8928 0.214169 0.323167 0.092179 0.0
3 38 81.3298 73.2447 0.283672 0.0954592 -0.0785713 0.0
3 39 81.7976 72.5945 0.230732 -0.0692501 -0.209339 0.0
3 40 82.3084 71.9783 0.296238 0.0365602 -0.133336 0.0
3 41 82.8701 71.4065 0.237132 0.172354 -0.00343507 0.0
3 42 83.4656 70.8718 0.297 0.137616 -0.0299629 0.0
3 43 84.0986 70.3819 0.233245 0.0779137 -0.115406 0.0
3 44 84.7465 69.9119 0.284635 0.143898 -0.0312641 0.0
3 45 85.4381 69.5075 0.225744 -0.0220674 -0.278263 0.0
3 46 86.0402 68.9726 0.275796 -0.0363254 -0.286712 0.0
3 47 86.7728 68.625 0.212858 -0.0483098 -0.314153 0.0
3 48 87.3839 68.1045 0.259615 0.00218266 -0.241451 0.0
3 49 88.0214 67.6232 0.1963 0.0164201 -0.214066 0.0
3 50 88.6604 67.1413 0.245022 0.0894267 -0.121411 0.0
3 51 89.2863 66.6443 0.175871 0.0561088 -0.169358 0.0
3 52 89.8956 66.1254 0.228355 -0.0432213 -0.272479 0.0
3 53 90.5215 65.6266 0.159242 0.0490635 -0.169627 0.0
3 54 91.0145 64.981 0.215979 0.0551324 -0.164239 0.0
3 55 91.6312 64.4723 0.146306 0.0784676 -0.137794 0.0
3 56 92.228 63.9392 0.202711 0.074513 -0.137397 0.0
3 57 92.8499 63.4365 0.134441 0.0613696 -0.142768 0.0
3 58 93.4396 62.8948 0.189664 0.336665 0.157608 0.0
3 59 94.0258 62.3513 0.123326 0.0391129 -0.153768 0.0
3 60 94.5844 61.779 0.177063 0.0795706 -0.108095 0.0
3 61 95.1791 61.2407 0.119685 0.175331 -0.011036 0.0
3 62 95.6359 60.5736 0.176261 0.0995836 -0.0969475 0.0
3 63 96.1931 60.0009 0.11558 0.150486 -0.0365399 0.0
3 64 96.7418 59.4189 0.173578 0.165082 -0.0257821 0.0
3 65 97.3017 58.8468 0.113235 -0.0378046 -0.232688 0.0
3 66 97.8987 58.3131 0.169598 0.131473 -0.051898 0.0
3 67 98.5152 57.8042 0.109688 -0.0795028 -0.310663 0.0
3 68 99.1474 57.3125 0.164914 -0.00638056 -0.215536 0.0
3 69 99.8021 56.8523 0.102594 -0.0800515 -0.337792 0.0
3 70 100.506 56.4674 0.157873 0.130533 0.00360632 0.0
3 71 101.177 56.0327 0.0914925 0.162309 0.0604622 0.0
3 72 101.902 55.6908 0.145253 -0.0169037 -0.276065 0.0
3 73 102.579 55.2573 0.0770576 0.0952795 -0.060863 0.0
3 74 103.337 54.9888 0.12481 -0.0461147 -0.37954 0.0
3 75 104.064 54.6573 0.0513854 0.0242134 -0.229398 0.0
3 76 104.804 54.3516 0.091476 0.0527946 -0.170854 0.0
3 77 105.586 54.1621 0.0245471 0.0537937 -0.165173 0.0
3 78 106.332 53.8723 0.0510235 -0.0285247 -0.393452 0.0
3 79 107.043 53.498 0.0 0.110307 -0.0355951 0.0
3 80 107.741 53.1088 0.00857572 0.0335573 -0.242668 0.0
4 1 105.063 277.346 0.000709875 -0.161238 0.0836546 0.0
4 2 104.501 276.732 0.0383392 -0.157728 0.074933 0.0
4 3 104.325 275.926 0.00856479 0.0162642 -0.0201792 0.0
4 4 103.894 275.252 0.0551467 1.4261e-05 -0.00577822 0.0
4 5 103.532 274.536 0.00594457 -0.223306 0.119071 0.0
4 6 103.021 273.911 0.0586809 -0.0858457 0.0410458 0.0
4 7 102.642 273.206 0.00645178 0.0283854 -0.0189795 0.0
4 8 102.251 272.507 0.0587806 0.00223557 -0.00847393 0.0
4 9 102.015 271.734 0.00658239 -0.238691 0.103553 0.0
4 10 101.666 271.016 0.0575628 0.130634 -0.0609879 0.0
4 11 101.274 270.316 0.00897445 -0.171216 0.0734718 0.0
4 12 101.011 269.555 0.0595541 0.0885049 -0.0423576 0.0
4 13 100.629 268.852 0.00625173 -0.00562395 5.67584e-05 0.0
4 14 100.288 268.128 0.0563389 0.171622 -0.0842775 0.0
4 15 99.9401 267.408 0.00653851 -0.00050989 0.00283071 0.0
4 16 99.5065 266.732 0.0610538 0.0544611 -0.0223134 0.0
4 17 99.1611 266.01 0.00558332 -0.00245867 0.00742961 0.0
4 18 98.8343 265.28 0.0596031 0.0181645 -0.00128876 0.0
4 19 98.5128 264.547 0.00442233 -0.0146033 0.0131343 0.0
4 20 98.2167 263.804 0.0598386 -0.0391575 0.0231864 0.0
4 21 97.9733 263.041 0.00566112 -0.00788694 -0.00425102 0.0
4 22 97.6013 262.328 0.0602165 -0.00190406 0.0116067 0.0
4 23 97.3902 261.552 0.00476054 0.0147251 0.00357139 0.0
4 24 97.0728 260.816 0.0624757 0.0459493 -0.0216529 0.0
4 25 96.7021 260.104 0.00377617 -0.303745 0.163071 0.0
4 26 96.2376 259.45 0.0590077 0.0729652 -0.0615397 0.0
4 27 95.8029 258.78 0.00370468 0.0318535 -0.0313467 0.0
4 28 95.3968 258.091 0.0593223 -0.155829 0.084216 0.0
4 29 95.0082 257.39 0.00499823 -0.102593 0.0479066 0.0
4 30 94.661 256.669 0.0577514 0.0831998 -0.0460023 0.0
4 31 94.419 255.901 0.00645466 0.179792 -0.0805696 0.0
4 32 94.0306 255.199 0.0585962 -0.126471 0.0564697 0.0
4 33 93.7926 254.43 0.00608543 -0.169277 0.0690695 0.0
4 34 93.3018 253.776 0.0603135 0.225124 -0.119945 0.0
4 35 93.0933 252.99 0.00645175 -0.098973 0.0282102 0.0
4 36 92.732 252.279 0.0592961 0.142927 -0.0953073 0.0
4 37 92.2986 251.598 0.00552458 -0.0554108 0.0136803 0.0
4 38 91.9362 250.888 0.0617638 -0.152549 0.0665805 0.0
4 39 91.7229 250.103 0.0106815 -0.0977856 0.0326772 0.0
4 40 91.272 249.431 0.0622031 -0.100201 0.0333325 0.0
4 41 90.9459 248.702 0.00464745 0.163149 -0.0953525 0.0
4 42 90.6536 247.955 0.0599003 -0.0771313 0.0298851 0.0
4 43 90.2151 247.277 0.00129026 0.150904 -0.0803139 0.0
4 44 89.9239 246.531 0.0578798 0.132218 -0.0702787 0.0
4 45 89.616 245.792 0.00350268 -0.0763525 0.0108176 0.0
4 46 89.3361 245.044 0.058325 -0.181804 0.0607581 0.0
4 47 89.0863 244.28 0.00565416 0.022483 -0.0213547 0.0
4 48 88.7297 243.562 0.0564836 -0.108667 0.0454799 0.0
4 49 88.3266 242.87 0.00288922 -0.0620429 0.00728901 0.0
4 50 87.9433 242.168 0.0526853 -0.237037 0.121019 0.0
4 51 87.5269 241.484 0.0014633 0.116355 -0.0938058 0.0
4 52 87.0693 240.827 0.0549369 0.00100334 -0.0163689 0.0
4 53 86.632 240.157 0.000643104 -0.0576677 0.0136675 0.0
4 54 86.1945 239.487 0.0535528 0.122684 -0.0956475 0.0
4 55 85.8324 238.77 9.2611e-05 0.0152009 -0.016607 0.0
4 56 85.4091 238.092 0.051582 0.0719968 -0.0500199 0.0
4 57 85.0093 237.4 0.00100006 -0.0483548 0.0162437 0.0
4 58 84.5582 236.735 0.0519415 0.178269 -0.103057 0.0
4 59 84.2185 236.009 0.00251746 -0.00656734 0.000149235 0.0
4 60 83.9122 235.267 0.0488654 -0.041996 0.00638749 0.0
4 61 83.6646 234.507 0.000677986 -0.000709074 -0.00467834 0.0
4 62 83.5423 233.709 0.0490042 0.0854447 -0.0271158 0.0
4 63 83.2371 232.965 0.000945982 -0.0378272 0.00221613 0.0
4 64 83.0405 232.189 0.048688 0.0720643 -0.0153709 0.0
4 65 82.8339 231.416 0.00195216 -0.142445 0.0586252 0.0
4 66 82.5788 230.658 0.0493579 0.246097 -0.07133 0.0
4 67 82.3603 229.886 0.00290402 -0.0878963 0.027334 0.0
4 68 82.0273 229.157 0.0543361 -0.115238 0.0559453 0.0
4 69 81.6702 228.44 0.00125172 -0.0592034 0.0452517 0.0
4 70 81.2625 227.752 0.0470073 -0.0728223 0.0445878 0.0
4 71 80.806 227.092 1.80079e-05 -0.00407244 -0.00311738 0.0
4 72 80.4073 226.399 0.0446757 -0.108835 0.067955 0.0
4 73 80.0203 225.698 0.00126208 0.0642697 -0.0291268 0.0
4 74 79.6308 225.001 0.0418902 0.128432 -0.0741488 0.0
4 75 79.1516 224.354 5.17077e-05 0.0962146 -0.0592706 0.0
4 76 78.7794 223.646 0.0323084 0.0441985 -0.0250412 0.0
4 77 78.4275 222.926 4.38749e-05 -0.0101309 0.00684911 0.0
4 78 78.0262 222.233 0.0175676 0.138685 -0.0803282 0.0
4 79 77.5179 221.607 9.53651e-06 -0.145707 0.0999733 0.0
4 80 77.0645 220.952 0.000607478 -0.0516186 0.051332 0.0
5 1 281.302 53.0406 1.32611 0.190506 -0.21948 0.0
5 2 280.93 52.3203 1.3706 0.00449357 -0.119872 0.0
5 3 280.416 51.7078 1.35251 -0.00616698 -0.105137 0.0
5 4 279.901 51.0949 1.40666 -0.138028 0.00945881 0.0
5 5 279.298 50.5612 1.37307 -0.0698924 -0.0481205 0.0
5 6 278.836 49.9041 1.43263 -0.117849 -0.00403875 0.0
5 7 278.261 49.3414 1.39209 -0.0736843 -0.0398588 0.0
5 8 277.809 48.6804 1.44755 0.0314405 -0.112703 0.0
5 9 277.292 48.0663 1.40697 -0.0386863 -0.0495506 0.0
5 10 276.821 47.4227 1.46388 -0.0424398 -0.0597357 0.0
5 11 276.518 46.6601 1.42368 -0.134362 0.0169212 0.0
5 12 275.999 46.0482 1.47538 -0.0169511 -0.0577175 0.0
5 13 275.515 45.412 1.43312 0.176094 -0.212558 0.0
5 14 275.007 44.795 1.49111 -0.156409 0.0671493 0.0
5 15 274.493 44.1792 1.45259 -0.00549695 -0.0510829 0.0
5 16 273.898 43.6425 1.50787 -0.0593823 0.00117461 0.0
5 17 273.318 43.0916 1.47593 0.129709 -0.18631 0.0
5 18 272.822 42.4575 1.53577 -0.0118284 -0.0357521 0.0
5 19 272.213 41.9357 1.5065 -0.0362512 -0.00188188 0.0
5 20 271.663 41.3543 1.55899 -0.102562 0.0780537 0.0
5 21 271.024 40.8684 1.52098 -0.0820516 0.060576 0.0
5 22 270.431 40.3317 1.5625 -0.193157 0.199546 0.0
5 23 269.881 39.7471 1.50857 -0.0504815 0.036267 0.0
5 24 269.19 39.3232 1.54321 0.083092 -0.110695 0.0
5 25 268.642 38.735 1.48292 -0.0659877 0.0761034 0.0
5 26 267.985 38.2742 1.51835 -0.119863 0.145065 0.0
5 27 267.376 37.755 1.45567 -0.0486988 0.0679746 0.0
5 28 266.798 37.201 1.49433 0.0885545 -0.0825505 0.0
5 29 266.253 36.6151 1.43475 -0.17957 0.214205 0.0
5 30 265.655 36.0833 1.48207 -0.106173 0.132507 0.0
5 31 265.055 35.5541 1.42623 -0.130532 0.165235 0.0
5 32 264.399 35.094 1.47047 -0.254384 0.329078 0.0
5 33 263.818 34.5393 1.41864 0.0214974 -0.00925849 0.0
5 34 263.154 34.0883 1.46913 0.0484848 -0.0611352 0.0
5 35 262.465 33.6788 1.41339 -0.0693345 0.125887 0.0
5 36 261.7 33.4191 1.4608 0.0608733 -0.0962767 0.0
5 37 261.05 32.9349 1.40268 0.0231114 -0.0363994 0.0
5 38 260.262 32.7226 1.4529 -0.025377 0.067636 0.0
5 39 259.567 32.3256 1.39595 0.079233 -0.118121 0.0
5 40 258.889 31.8985 1.44785 -0.0857746 0.156707 0.0
5 41 258.245 31.4227 1.40852 -0.0656338 0.118142 0.0
5 42 257.548 31.0295 1.47772 0.0477057 -0.0638151 0.0
5 43 256.926 30.516 1.45055 -0.0313677 0.0669369 0.0
5 44 256.219 30.1397 1.47657 -0.059433 0.0997499 0.0
5 45 255.542 29.711 1.44236 -0.0151744 0.0302765 0.0
5 46 254.846 29.3154 1.46876 0.0318673 -0.074858 0.0
5 47 254.083 29.0563 1.4414 -0.121639 0.229862 0.0
5 48 253.41 28.6083 1.51175 -0.141458 0.304744 0.0
5 49 252.606 28.4472 1.48306 -0.0873884 0.161996 0.0
5 50 251.919 28.0285 1.55379 0.0614235 -0.190104 0.0
5 51 251.167 27.7509 1.5131 -0.0156998 -0.0163239 0.0
5 52 250.447 27.4015 1.57538 0.00716031 -0.0641445 0.0
5 53 249.732 27.0424 1.52795 -0.122149 0.19351 0.0
5 54 249.016 26.6871 1.5835 -0.043985 0.0272272 0.0
5 55 248.299 26.3322 1.52069 -0.0992025 0.132734 0.0
5 56 247.589 25.9619 1.57134 -0.105774 0.131379 0.0
5 57 246.969 25.4408 1.49478 -0.0815425 0.101692 0.0
5 58 246.269 25.0532 1.54148 0.081026 -0.176287 0.0
5 59 245.552 24.6994 1.46214 -0.109277 0.152445 0.0
5 60 244.838 24.3378 1.50653 0.0324122 -0.138328 0.0
5 61 244.12 23.99 1.43368 0.0566149 -0.163553 0.0
5 62 243.389 23.6586 1.47664 -0.106107 0.138068 0.0
5 63 242.671 23.3131 1.39639 -0.0252179 -0.0285424 0.0
5 64 242.051 22.7771 1.43847 -0.0881305 0.0911425 0.0
5 65 241.296 22.4945 1.36931 -0.0585837 0.01892 0.0
5 66 240.593 22.1146 1.41782 0.0421941 -0.196466 0.0
5 67 239.895 21.725 1.35579 -0.010746 -0.0781064 0.0
5 68 239.165 21.3932 1.40592 -0.0446177 -0.0280934 0.0
5 69 238.428 21.0797 1.34891 -0.0199165 -0.1067 0.0
5 70 237.616 20.9838 1.40462 -0.044347 -0.0355827 0.0
5 71 236.872 20.6943 1.35177 -0.0492212 -0.0180596 0.0
5 72 236.129 20.3959 1.40367 -0.139414 0.223598 0.0
5 73 235.36 20.17 1.34855 -0.085878 0.0435062 0.0
5 74 234.614 19.8803 1.39734 -0.00250472 -0.171569 0.0
5 75 233.889 19.5408 1.34364 -0.0564399 -0.0261294 0.0
5 76 233.178 19.1707 1.37133 -0.0215468 -0.132738 0.0
5 77 232.418 18.9166 1.32131 -0.0448936 -0.0784939 0.0
5 78 231.674 18.6219 1.32898 -0.0471171 -0.062848 0.0
5 79 230.941 18.3044 1.28484 -0.0502814 -0.0757686 0.0
5 80 230.132 18.1941 1.27699 -0.0110547 -0.191873 0.0
6 1 296.198 255.403 0.189057 0.253555 -0.0106892 0.0
6 2 296.411 254.632 0.233043 0.17543 -0.0338733 0.0
6 3 296.699 253.884 0.243979 0.0610373 -0.079491 0.0
6 4 296.969 253.134 0.286621 -0.0615461 -0.11385 0.0
6 5 297.072 252.325 0.28283 -0.098435 -0.122256 0.0
6 6 297.414 251.598 0.340348 -0.0207802 -0.102598 0.0
6 7 297.676 250.842 0.320659 0.0364302 -0.078937 0.0
6 8 297.991 250.109 0.37141 0.0502511 -0.0698124 0.0
6 9 298.199 249.329 0.338686 0.0428408 -0.0758712 0.0
6 10 298.666 248.658 0.372472 0.0753085 -0.0561171 0.0
6 11 298.912 247.896 0.323477 0.131533 -0.0356398 0.0
6 12 299.254 247.172 0.342285 0.148888 -0.0288564 0.0
6 13 299.569 246.438 0.279987 0.0189667 -0.0840717 0.0
6 14 299.969 245.743 0.286517 -0.116488 -0.167486 0.0
6 15 300.259 244.995 0.210278 0.0609732 -0.0633857 0.0
6 16 300.691 244.319 0.217232 -0.0825944 -0.150561 0.0
6 17 301.044 243.603 0.142009 -0.0510713 -0.141035 0.0
6 18 301.622 243.018 0.155084 -0.0732842 -0.145678 0.0
6 19 301.952 242.287 0.0909404 0.109852 -0.0422895 0.0
6 20 302.342 241.588 0.115597 0.089288 -0.0641982 0.0
6 21 302.484 240.78 0.054529 0.00896954 -0.095016 0.0
6 22 302.941 240.104 0.0880322 0.122745 -0.0503116 0.0
6 23 303.18 239.341 0.0315339 -0.00920578 -0.0976486 0.0
6 24 303.532 238.619 0.0780513 0.0360007 -0.0869976 0.0
6 25 303.704 237.83 0.0243074 0.0396724 -0.0811733 0.0
6 26 304.035 237.101 0.0752525 0.0220726 -0.0920465 0.0
6 27 304.309 236.35 0.0219462 -0.0559331 -0.11961 0.0
6 28 304.658 235.629 0.0756092 0.038144 -0.0836589 0.0
6 29 304.919 234.872 0.0287722 0.0461632 -0.0783848 0.0
6 30 305.236 234.138 0.0843259 4.82221e-05 -0.1002 0.0
6 31 305.487 233.376 0.0317539 0.114017 -0.0529359 0.0
6 32 305.85 232.662 0.082388 0.132087 -0.0473796 0.0
6 33 306.158 231.924 0.0314576 -0.0663798 -0.142931 0.0
6 34 306.547 231.223 0.0850281 0.00792698 -0.10397 0.0
6 35 306.812 230.465 0.0323124 -0.0606233 -0.133099 0.0
6 36 307.2 229.763 0.0837916 0.105303 -0.0596207 0.0
6 37 307.496 229.02 0.0274396 -0.182929 -0.180058 0.0
6 38 307.818 228.287 0.0799606 0.0249117 -0.101509 0.0
6 39 308.068 227.526 0.0247266 -0.145095 -0.15045 0.0
6 40 308.243 226.743 0.0773614 0.128123 -0.0807598 0.0
6 41 308.397 225.959 0.0244165 -0.0277846 -0.112444 0.0
6 42 308.513 225.168 0.0710412 -0.0702032 -0.121415 0.0
6 43 308.671 224.381 0.0190982 -0.045253 -0.111742 0.0
6 44 308.706 223.58 0.0705668 0.10606 -0.102332 0.0
6 45 308.763 222.783 0.0187918 -0.00617511 -0.110032 0.0
6 46 308.818 221.984 0.0677494 -0.0121398 -0.10715 0.0
6 47 308.834 221.184 0.0131534 0.0714076 -0.104625 0.0
6 48 308.822 220.383 0.0654982 0.0224553 -0.10229 0.0
6 49 308.781 219.585 0.00953951 0.133106 -0.108295 0.0
6 50 308.977 218.788 0.0656006 -0.135277 -0.106252 0.0
6 51 308.781 217.986 0.0133003 -0.0329008 -0.109757 0.0
6 52 308.878 217.189 0.0689053 0.0331676 -0.108852 0.0
6 53 308.874 216.39 0.0171689 0.0841929 -0.105833 0.0
6 54 308.838 215.586 0.0696428 0.0904938 -0.103636 0.0
6 55 308.969 214.792 0.0159668 -0.00317702 -0.113405 0.0
6 56 309.028 213.996 0.0678812 -0.0886625 -0.122714 0.0
6 57 309.077 213.197 0.0137926 -0.133679 -0.119394 0.0
6 58 309.139 212.398 0.0690115 -0.0230047 -0.118826 0.0
6 59 308.999 211.597 0.0155489 0.118951 -0.126916 0.0
6 60 309.027 210.799 0.0712979 0.15762 -0.125149 0.0
6 61 309.085 210.0 0.0113717 0.0461289 -0.124491 0.0
6 62 309.059 209.198 0.0664029 -0.162461 -0.135452 0.0
6 63 309.162 208.402 0.0085156 -0.161021 -0.138627 0.0
6 64 309.198 207.603 0.0640015 0.0212573 -0.121292 0.0
6 65 309.206 206.802 0.00778779 0.00939797 -0.130324 0.0
6 66 309.129 206.004 0.0639221 0.219691 -0.136725 0.0
6 67 309.114 205.204 0.0103628 -0.201556 -0.111818 0.0
6 68 309.057 204.406 0.060588 -0.0404942 -0.118869 0.0
6 69 308.998 203.608 0.00934608 0.0643589 -0.131003 0.0
6 70 308.958 202.809 0.0588375 0.00725554 -0.122636 0.0
6 71 308.903 202.01 0.00879161 -0.0030884 -0.125553 0.0
6 72 308.925 201.209 0.0572703 0.0583855 -0.122327 0.0
6 73 308.966 200.41 0.00506135 0.0683637 -0.123249 0.0
6 74 308.926 199.61 0.0554864 0.0405851 -0.120788 0.0
6 75 308.931 198.809 0.00350964 0.0304972 -0.120413 0.0
6 76 309.019 198.012 0.0515648 -0.137659 -0.132199 0.0
6 77 309.117 197.219 0.000900062 0.145899 -0.110548 0.0
6 78 309.242 196.428 0.0431806 -0.0795944 -0.124047 0.0
6 79 309.292 195.628 0.0105371 -0.0617044 -0.128443 0.0
6 80 309.267 194.826 0.0462211 0.0336409 -0.122388 0.0
7 1 261.82 271.71 0.777248 0.111832 -0.0733335 0.0
7 2 261.916 270.916 0.747927 -0.0734425 -0.0959795 0.0
7 3 262.042 270.127 0.751197 0.193415 -0.0624047 0.0
7 4 262.036 269.32 0.709546 0.078299 -0.0772365 0.0
7 5 262.32 268.552 0.732615 0.126023 -0.0719822 0.0
7 6 262.348 267.749 0.68939 0.0453219 -0.082618 0.0
7 7 262.499 266.964 0.721328 -0.0791395 -0.102091 0.0
7 8 262.616 266.171 0.679732 0.153685 -0.0649825 0.0
7 9 262.769 265.386 0.713667 0.109893 -0.0705951 0.0
7 10 262.981 264.614 0.675625 0.153086 -0.0627668 0.0
7 11 263.17 263.835 0.7135 0.0119429 -0.0911676 0.0
7 12 263.281 263.042 0.676113 0.143762 -0.0698016 0.0
7 13 263.361 262.245 0.706664 0.12423 -0.0723169 0.0
7 14 263.46 261.451 0.662539 0.061004 -0.0839055 0.0
7 15 263.607 260.664 0.701224 -0.0324235 -0.0981517 0.0
7 16 263.799 259.887 0.644004 0.120772 -0.0722305 0.0
7 17 263.924 259.096 0.693808 0.0610185 -0.0769586 0.0
7 18 264.131 258.321 0.66129 -0.149347 -0.132891 0.0
7 19 264.348 257.553 0.730717 -0.151594 -0.138921 0.0
7 20 264.559 256.781 0.697436 -0.00867242 -0.0948488 0.0
7 21 264.833 256.026 0.755161 0.101042 -0.0627011 0.0
7 22 264.972 255.236 0.71191 0.0771625 -0.0760686 0.0
7 23 265.099 254.445 0.763736 0.133513 -0.0595984 0.0
7 24 265.315 253.674 0.719674 -0.0116571 -0.0980808 0.0
7 25 265.523 252.901 0.770073 -0.0441536 -0.110692 0.0
7 26 265.766 252.139 0.723884 -0.0703239 -0.119823 0.0
7 27 266.023 251.38 0.77307 0.0263899 -0.0864775 0.0
7 28 266.288 250.626 0.728592 0.00285266 -0.0987069 0.0
7 29 266.616 249.895 0.779408 0.182058 -0.0281748 0.0
7 30 266.824 249.116 0.734407 0.0525035 -0.0839601 0.0
7 31 267.174 248.396 0.783392 0.0441588 -0.0865272 0.0
7 32 267.493 247.661 0.735167 0.162871 -0.0335804 0.0
7 33 267.867 246.953 0.781056 0.099572 -0.0646251 0.0
7 34 268.278 246.266 0.732834 0.107893 -0.0612669 0.0
7 35 268.711 245.593 0.781332 -0.053011 -0.167208 0.0
7 36 269.14 244.918 0.732 -0.00247521 -0.131508 0.0
7 37 269.604 244.264 0.782199 0.209836 -0.0013098 0.0
7 38 269.946 243.536 0.734401 0.112899 -0.0624933 0.0
7 39 270.376 242.862 0.789753 0.00435805 -0.125323 0.0
7 40 270.796 242.18 0.743197 -0.0316547 -0.149293 0.0
7 41 271.245 241.518 0.799756 0.0318819 -0.113573 0.0
7 42 271.693 240.855 0.753136 0.0244488 -0.112298 0.0
7 43 272.11 240.172 0.813867 0.0795527 -0.0814043 0.0
7 44 272.503 239.475 0.768098 0.171946 -0.0300062 0.0
7 45 272.765 238.71 0.825684 -0.0339412 -0.136347 0.0
7 46 273.167 238.018 0.77238 -0.0359427 -0.135319 0.0
7 47 273.58 237.332 0.833052 0.0329293 -0.0994479 0.0
7 48 274.002 236.653 0.778488 0.147453 -0.0270016 0.0
7 49 274.433 235.979 0.834896 0.0849757 -0.0655089 0.0
7 50 274.789 235.26 0.772997 0.0728416 -0.0745931 0.0
7 51 275.189 234.569 0.836366 0.0860201 -0.0622852 0.0
7 52 275.521 233.839 0.767584 0.0557535 -0.0853372 0.0
7 53 275.922 233.145 0.838572 0.161845 -0.0196085 0.0
7 54 276.394 232.496 0.764607 0.111987 -0.0477866 0.0
7 55 276.908 231.884 0.835505 0.157123 -0.0148837 0.0
7 56 277.375 231.233 0.762172 0.0503205 -0.0975506 0.0
7 57 277.908 230.635 0.838674 -0.0420238 -0.173791 0.0
7 58 278.465 230.062 0.767109 0.0668824 -0.0755881 0.0
7 59 279.079 229.544 0.843666 0.0373659 -0.0949804 0.0
7 60 279.587 228.922 0.768486 0.0711471 -0.0646226 0.0
7 61 280.135 228.341 0.850025 0.136193 0.00747979 0.0
7 62 280.711 227.786 0.771795 0.0162843 -0.116569 0.0
7 63 281.325 227.269 0.826435 0.0828774 -0.0405367 0.0
7 64 281.982 226.816 0.735206 0.09517 -0.0201011 0.0
7 65 282.606 226.313 0.740264 0.102904 -0.00331305 0.0
7 66 283.224 225.818 0.605163 0.0607286 -0.0569103 0.0
7 67 283.843 225.305 0.605886 -0.0309579 -0.155093 0.0
7 68 284.404 224.748 0.457479 0.0835897 -0.0249519 0.0
7 69 284.964 224.176 0.437982 0.0626707 -0.0480442 0.0
7 70 285.468 223.555 0.362907 0.0438421 -0.0664151 0.0
7 71 286.056 223.009 0.382914 0.0446952 -0.0573638 0.0
7 72 286.631 222.454 0.346608 0.0904336 -0.0118983 0.0
7 73 287.2 221.892 0.338857 0.142568 0.0421717 0.0
7 74 287.714 221.276 0.310083 0.0162329 -0.0744938 0.0