# 12000000
#nworms:800
#np:80
1 1 103.877 155.17 1.04966 -0.420879 0.00107948 0.0
1 2 103.587 154.429 1.06551 -0.380499 -0.041969 0.0
1 3 103.277 153.685 1.05772 -0.0391549 -0.105805 0.0
1 4 103.078 152.909 1.07547 0.0215404 -0.175156 0.0
1 5 102.911 152.127 1.06472 -0.133767 -0.118166 0.0
1 6 102.677 151.359 1.08062 -0.362053 -0.0739598 0.0
1 7 102.554 150.567 1.0609 -0.256736 -0.138576 0.0
1 8 102.472 149.768 1.0727 -0.0564278 -0.126194 0.0
1 9 102.442 148.969 1.05529 -0.390388 -0.0901029 0.0
1 10 102.496 148.166 1.0677 -0.115083 -0.164309 0.0
1 11 102.4 147.368 1.06326 -0.280281 -0.106775 0.0
1 12 102.408 146.568 1.07737 -0.266966 -0.0710696 0.0
1 13 102.334 145.768 1.07618 -0.30476 -0.112687 0.0
1 14 102.361 144.968 1.08809 -0.597225 -0.0453802 0.0
1 15 102.44 144.166 1.08544 -0.178698 -0.0988196 0.0
1 16 102.365 143.366 1.09015 -0.315658 -0.0494333 0.0
1 17 102.292 142.569 1.08329 -0.193925 -0.0734218 0.0
1 18 102.268 141.769 1.07903 -0.201234 -0.0598422 0.0
1 19 102.222 140.97 1.07144 -0.101707 -0.0906227 0.0
1 20 102.105 140.176 1.08924 -0.0118574 -0.108372 0.0
1 21 102.001 139.383 1.07925 -0.174229 -0.0951642 0.0
1 22 101.845 138.599 1.05219 0.0873567 -0.149181 0.0
1 23 101.73 137.806 1.04502 0.00287533 -0.125944 0.0
1 24 101.477 137.04 1.04225 -0.203574 -0.0587694 0.0
1 25 101.448 136.233 1.03865 0.224917 -0.178076 0.0
1 26 101.198 135.464 1.04263 0.015266 -0.080779 0.0
1 27 101.181 134.656 1.04558 -0.0958037 -0.0825121 0.0
1 28 100.948 133.886 1.07321 -0.245828 -0.0486703 0.0
1 29 100.847 133.089 1.08061 0.202531 -0.104406 0.0
1 30 100.705 132.303 1.08602 -0.424713 0.0129128 0.0
1 31 100.505 131.527 1.08227 -0.0979606 -0.0503982 0.0
1 32 100.533 130.707 1.08236 0.262634 -0.0679389 0.0
1 33 100.302 129.938 1.06971 0.321869 -0.109769 0.0
1 34 100.127 129.158 1.08153 0.242489 -0.0563276 0.0
1 35 99.8505 128.401 1.07776 -0.293112 0.0962406 0.0
1 36 99.8201 127.589 1.0694 -0.476427 0.116278 0.0
1 37 99.5411 126.829 1.08176 -0.0396977 -0.00439127 0.0
1 38 99.4343 126.035 1.07044 -0.13698 0.0150026 0.0
1 39 99.3459 125.24 1.1032 0.0176939 -0.0182825 0.0
1 40 99.1945 124.453 1.08143 -0.258873 -0.0193976 0.0
1 41 99.1625 123.65 1.12465 -0.0835255 -0.0145989 0.0
1 42 99.168 122.85 1.08759 0.112435 -0.0527432 0.0
1 43 99.1743 122.052 1.14025 -0.0234109 -0.0216885 0.0
1 44 99.121 121.25 1.0961 -0.310433 -0.0158777 0.0
1 45 99.1647 120.452 1.14742 0.257615 -0.0266251 0.0
1 46 99.2528 119.655 1.09602 0.237717 0.034674 0.0
1 47 99.3092 118.857 1.14965 -0.119752 -0.054745 0.0
1 48 99.3509 118.06 1.09333 -0.333191 -0.0750164 0.0
1 49 99.5731 117.278 1.13879 -0.0415389 -0.0731164 0.0
1 50 99.5961 116.477 1.09021 0.0767828 -0.0222027 0.0
1 51 99.6485 115.68 1.12933 0.203502 -0.0388706 0.0
1 52 99.5136 114.878 1.09782 -0.151505 -0.0578097 0.0
1 53 99.6234 114.081 1.11695 0.0448802 -0.0535996 0.0
1 54 99.6176 113.281 1.09669 0.183458 -0.0578213 0.0
1 55 99.6893 112.482 1.0995 0.209812 -0.0196384 0.0
1 56 99.7983 111.689 1.10647 0.316093 -0.0287296 0.0
1 57 100.032 110.92 1.09463 -0.0445979 -0.14487 0.0
1 58 100.034 110.106 1.1279 0.100895 -0.042723 0.0
1 59 100.297 109.343 1.09947 -0.116781 -0.127757 0.0
1 60 100.418 108.552 1.14271 0.160564 -0.0786997 0.0
1 61 100.609 107.774 1.09829 0.195207 -0.0327121 0.0
1 62 100.864 107.014 1.15617 -0.0135996 -0.083569 0.0
1 63 101.032 106.232 1.10128 0.23711 -0.00945564 0.0
1 64 101.219 105.452 1.15801 0.046154 -0.0252647 0.0
1 65 101.46 104.689 1.10474 -0.0789998 -0.0730407 0.0
1 66 101.805 103.962 1.15085 -0.189572 -0.112906 0.0
1 67 101.957 103.169 1.1107 -0.0220348 -0.0238124 0.0
1 68 102.285 102.436 1.13672 -0.252174 -0.138562 0.0
1 69 102.54 101.679 1.1173 -0.109712 -0.0614901 0.0
1 70 102.756 100.907 1.11755 -0.00583114 -0.0368452 0.0
1 71 103.002 100.147 1.12357 0.100472 0.00572361 0.0
1 72 103.236 99.3821 1.09925 -0.0411042 -0.0385419 0.0
1 73 103.538 98.6386 1.11896 0.0915245 0.0177606 0.0
1 74 103.741 97.8644 1.07563 0.240111 0.0351956 0.0
1 75 103.957 97.0932 1.10382 -0.163642 -0.0431226 0.0
1 76 104.181 96.3265 1.07751 0.0437775 0.0212016 0.0
1 77 104.464 95.5758 1.08655 0.0773423 0.0410263 0.0
1 78 104.681 94.805 1.08748 -0.0495861 0.00631514 0.0
1 79 104.964 94.0576 1.10237 0.0418899 0.0128311 0.0
1 80 105.252 93.3092 1.11528 -0.0705409 -0.0265793 0.0
2 1 135.412 85.1879 1.09979 0.1402 0.137165 0.0
2 2 134.838 85.7856 1.08479 0.0366155 0.236592 0.0
2 3 134.539 86.5286 1.11225 0.0289878 0.202518 0.0
2 4 134.169 87.2413 1.09145 0.195817 0.243047 0.0
2 5 133.992 88.0317 1.12961 -0.0442723 0.129401 0.0
2 6 133.623 88.7449 1.0915 -0.0830666 0.171567 0.0
2 7 133.351 89.4983 1.14097 -0.0435909 0.123673 0.0
2 8 133.02 90.2261 1.0845 -0.0189356 0.137992 0.0
2 9 132.723 90.9696 1.14453 0.0265129 0.146768 0.0
2 10 132.406 91.7061 1.0833 -0.0610138 0.169896 0.0
2 11 132.303 92.5142 1.14615 -0.1696 0.0651151 0.0
2 12 132.054 93.2732 1.09576 -0.222314 0.0452525 0.0
2 13 131.67 93.9867 1.14665 -0.108307 0.145334 0.0
2 14 131.41 94.739 1.12562 -0.0113824 0.200633 0.0
2 15 131.159 95.5023 1.14847 -0.140978 0.121582 0.0
2 16 130.818 96.2281 1.08518 0.0862376 0.281078 0.0
2 17 130.417 96.9208 1.13994 -0.0747784 0.0950365 0.0
2 18 130.025 97.6196 1.07973 -0.22341 -0.027149 0.0
2 19 129.559 98.2706 1.14096 -0.0356898 0.223269 0.0
2 20 129.06 98.8971 1.08414 -0.19713 0.0262191 0.0
2 21 128.517 99.4854 1.13931 -0.191786 0.0334632 0.0
2 22 127.935 100.037 1.09126 0.016132 0.211828 0.0
2 23 127.322 100.55 1.13994 -0.111224 0.11985 0.0
2 24 126.697 101.05 1.07699 -0.172799 0.0642763 0.0
2 25 126.083 101.565 1.13535 0.0549327 0.231846 0.0
2 26 125.48 102.087 1.07087 -0.218208 -0.0382372 0.0
2 27 124.853 102.587 1.13656 -0.234689 -0.0446661 0.0
2 28 124.251 103.114 1.07564 0.0263424 0.197537 0.0
2 29 123.754 103.752 1.13563 -0.0859745 0.0126243 0.0
2 30 123.076 104.201 1.07328 -0.0448522 0.124634 0.0
2 31 122.531 104.786 1.13805 -0.171086 -0.0186313 0.0
2 32 122.054 105.434 1.07522 -0.330984 -0.128244 0.0
2 33 121.535 106.041 1.14046 -0.114556 0.0463884 0.0
2 34 121.1 106.715 1.07494 -0.159831 -0.00128498 0.0
2 35 120.638 107.367 1.13714 -0.0515893 0.0169507 0.0
2 36 120.15 108.001 1.07536 -0.241414 -0.0270221 0.0
2 37 119.751 108.699 1.14129 -0.210584 -0.11056 0.0
2 38 119.428 109.434 1.07889 -0.245709 -0.0787422 0.0
2 39 119.185 110.195 1.13205 0.0755045 0.00547736 0.0
2 40 118.907 110.946 1.06421 -0.149811 0.0147845 0.0
2 41 118.738 111.73 1.1122 -0.274821 -0.128342 0.0
2 42 118.545 112.505 1.0454 0.160257 0.0183524 0.0
2 43 118.373 113.29 1.09175 -0.0642273 -0.063211 0.0
2 44 118.012 114.012 1.03515 -0.143314 -0.0580479 0.0
2 45 117.743 114.764 1.09297 -0.0941283 -0.139794 0.0
2 46 117.497 115.525 1.03632 0.20143 0.0489837 0.0
2 47 117.412 116.333 1.09875 -0.309181 -0.104457 0.0
2 48 117.091 117.071 1.04538 -0.263871 -0.082033 0.0
2 49 116.878 117.842 1.10194 -0.0321912 -0.0136536 0.0
2 50 116.678 118.617 1.05198 -0.198753 -0.0738657 0.0
2 51 116.611 119.421 1.07829 -0.172721 -0.0837436 0.0
2 52 116.353 120.183 1.04637 0.0403938 -0.00314413 0.0
2 53 116.259 120.979 1.08634 -0.298971 -0.0932644 0.0
2 54 116.098 121.766 1.04178 -0.145822 -0.0450585 0.0
2 55 116.098 122.569 1.08108 -0.093129 -0.0620857 0.0
2 56 116.025 123.367 1.07305 0.146897 -0.0264239 0.0
2 57 116.026 124.166 1.09343 -0.278457 -0.0278741 0.0
2 58 116.126 124.966 1.05651 -0.380947 -0.046454 0.0
2 59 115.97 125.766 1.07269 -0.414721 -0.0587409 0.0
2 60 116.017 126.563 1.06944 -0.435589 -0.0292549 0.0
2 61 116.032 127.366 1.08559 -0.0686947 -0.0302192 0.0
2 62 116.167 128.156 1.08756 -0.154915 -0.0296304 0.0
2 63 116.292 128.946 1.08722 -0.386953 0.0354432 0.0
2 64 116.443 129.732 1.10147 -0.145301 0.0117593 0.0
2 65 116.57 130.521 1.0874 -0.146876 0.0147515 0.0
2 66 116.85 131.28 1.10901 -0.234983 0.10284 0.0
2 67 116.916 132.085 1.08022 -0.294286 0.00487359 0.0
2 68 117.147 132.851 1.10242 -0.497806 0.0925768 0.0
2 69 117.353 133.628 1.06958 -0.325668 -0.0073033 0.0
2 70 117.786 134.318 1.09659 0.0156487 -0.108812 0.0
2 71 118.014 135.087 1.07142 -0.263844 0.020326 0.0
2 72 118.316 135.828 1.08699 -0.104543 -0.0397757 0.0
2 73 118.694 136.535 1.06631 -0.147795 0.0336635 0.0
2 74 119.05 137.253 1.07367 -0.27814 0.0529412 0.0
2 75 119.479 137.928 1.05468 -0.242224 0.0173379 0.0
2 76 119.912 138.602 1.06678 -0.0470339 -0.0861263 0.0
2 77 120.35 139.272 1.03488 -0.073734 -0.0397594 0.0
2 78 120.644 140.024 1.03281 -0.124594 -0.0240801 0.0
2 79 121.027 140.725 1.01583 -0.262408 0.00899338 0.0
2 80 121.426 141.417 1.02498 -0.339562 0.0811984 0.0
3 1 311.255 122.912 1.48091e-05 -0.139225 0.0138934 0.0
3 2 310.977 122.164 1.23179e-05 0.116194 0.0228638 0.0
3 3 310.812 121.373 2.61e-05 0.00997688 0.107775 0.0
3 4 310.521 120.625 2.59976e-05 0.212291 0.17962 0.0
3 5 310.164 119.906 0.0 -0.232396 0.214983 0.0
3 6 310.067 119.088 2.19201e-05 0.224741 0.0526507 0.0
3 7 309.69 118.374 0.000194335 -0.116631 0.377458 0.0
3 8 309.369 117.643 0.000309219 -0.0938209 0.154294 0.0
3 9 309.098 116.886 5.02513e-05 -0.132153 0.278314 0.0
3 10 308.707 116.188 1.72889e-05 0.084762 0.0149383 0.0
3 11 308.437 115.43 2.88081e-05 0.0999056 0.114974 0.0
3 12 308.071 114.717 0.0 -0.0941032 0.180621 0.0
3 13 307.601 114.064 0.000100268 0.473353 -0.136394 0.0
3 14 307.192 113.379 3.19016e-05 -0.491679 0.419342 0.0
3 15 306.698 112.743 7.62454e-05 -0.229057 0.346353 0.0
3 16 306.32 112.038 8.83197e-05 -0.318171 0.267551 0.0
3 17 305.887 111.361 0.000118383 0.244427 0.0915009 0.0
3 18 305.536 110.643 4.99968e-05 -0.44906 0.480661 0.0
3 19 305.223 109.899 0.000135931 0.081479 0.0604166 0.0
3 20 304.776 109.237 1.36674e-05 -0.0486522 0.19539 0.0
3 21 304.27 108.607 0.000149663 -0.0893848 0.276776 0.0
3 22 303.86 107.922 3.25679e-07 -0.0385399 0.174397 0.0
3 23 303.498 107.205 1.2774e-05 -0.286172 0.379868 0.0
3 24 302.962 106.599 3.86659e-05 -0.537505 0.445368 0.0
3 25 302.531 105.928 1.86324e-05 -0.237104 0.164562 0.0
3 26 302.072 105.274 9.838e-06 0.204835 0.170733 0.0
3 27 301.691 104.57 0.000176787 -0.522533 0.232118 0.0
3 28 301.283 103.885 0.000164604 -0.107433 0.0545274 0.0
3 29 300.887 103.187 9.23848e-05 -0.386983 0.0961538 0.0
3 30 300.614 102.43 7.55944e-05 -0.424625 0.316772 0.0
3 31 300.356 101.678 8.06317e-05 -0.102055 -0.0987904 0.0
3 32 300.18 100.889 7.23189e-06 -0.208962 0.183822 0.0
3 33 300.046 100.104 0.000258996 -0.051768 0.0361405 0.0
3 34 300.057 99.2939 0.000103441 0.158843 0.133287 0.0
3 35 299.903 98.5059 0.00098694 -0.202185 0.25049 0.0
3 36 299.781 97.7138 0.000356854 -0.516736 0.459567 0.0
3 37 299.763 96.9116 0.00102142 -0.0787416 0.237161 0.0
3 38 299.587 96.1255 0.000919927 -0.461256 0.189063 0.0
3 39 299.686 95.3171 0.00265277 0.816834 0.28937 0.0
3 40 299.47 94.5252 0.000947973 -0.0770079 0.0313131 0.0
3 41 299.505 93.7302 0.00253397 0.311136 0.188788 0.0
3 42 299.573 92.9241 0.000392988 0.204269 0.195634 0.0
3 43 299.513 92.1245 0.000260106 0.418476 0.141792 0.0
3 44 299.339 91.3387 0.0 -0.059687 0.283555 0.0
3 45 299.201 90.5522 5.6921e-05 -0.239411 0.227352 0.0
3 46 299.207 89.7431 2.4773e-05 -0.14537 0.258684 0.0
3 47 299.225 88.9398 0.000276516 -0.238101 0.209187 0.0
3 48 298.942 88.1631 0.000173252 -0.125344 0.183753 0.0
3 49 298.943 87.361 0.00031211 0.509179 -0.174074 0.0
3 50 298.843 86.565 8.53088e-05 0.106109 0.0947222 0.0
3 51 298.744 85.7715 1.11881e-05 -0.252794 0.0497677 0.0
3 52 298.369 85.0318 6.47506e-06 -0.439328 0.111733 0.0
3 53 298.331 84.2231 2.36691e-05 -0.0978193 0.195505 0.0
3 54 298.175 83.4429 3.43788e-05 -0.217321 0.0953408 0.0
3 55 297.926 82.6698 0.0 -0.0033049 0.0404634 0.0
3 56 298.066 81.8465 3.1057e-05 0.151432 0.0127243 0.0
3 57 297.981 81.0577 6.04508e-05 0.338116 0.00376826 0.0
3 58 297.808 80.2672 0.000106091 -0.387141 0.0420574 0.0
3 59 298.023 79.4537 1.52994e-05 0.128436 0.0796913 0.0
3 60 297.753 78.6675 2.6429e-05 0.152389 -0.00794359 0.0
3 61 297.908 77.8619 0.000219358 0.188641 0.174853 0.0
3 62 297.71 77.0686 8.45256e-05 -0.134881 0.0437184 0.0
3 63 297.74 76.2639 2.67663e-05 -0.077771 0.176764 0.0
3 64 297.719 75.4678 0.000179138 -0.315786 0.123137 0.0
3 65 297.51 74.6695 2.40096e-05 0.0617612 0.181576 0.0
3 66 297.722 73.8618 1.57943e-05 -0.143373 0.218181 0.0
3 67 297.63 73.0657 0.0 0.0444684 0.149771 0.0
3 68 297.595 72.2658 5.22393e-05 0.184116 0.148051 0.0
3 69 297.381 71.4807 1.38357e-05 -0.320208 0.0995178 0.0
3 70 297.359 70.6803 2.37787e-05 0.430237 0.0682354 0.0
3 71 297.334 69.8814 1.25499e-05 -0.221673 0.0358172 0.0
3 72 297.433 69.0813 4.14644e-05 -0.043365 -0.0599763 0.0
3 73 297.343 68.2841 9.61848e-06 -0.0124249 -0.0213438 0.0
3 74 297.321 67.4857 3.99666e-05 0.0473347 0.0556103 0.0
3 75 297.172 66.6913 0.000268615 0.181906 0.0485795 0.0
3 76 297.198 65.8854 0.000303315 0.214724 0.181915 0.0
3 77 296.994 65.108 0.000440398 0.25981 0.0763313 0.0
3 78 297.008 64.2951 0.000579558 0.0820917 0.250504 0.0
3 79 296.822 63.5153 0.000622165 0.00602031 0.191095 0.0
3 80 296.561 62.7539 0.000993581 0.231802 0.167746 0.0
4 1 137.01 252.206 0.000161672 0.111446 0.0195844 0.0
4 2 136.683 251.474 0.0 0.258253 0.110922 0.0
4 3 136.3 250.768 0.000302509 -0.297895 0.190887 0.0
4 4 136.271 249.927 7.29486e-05 -0.109801 0.124739 0.0
4 5 135.784 249.251 0.000539355 0.180404 0.0556982 0.0
4 6 135.631 248.461 0.00036867 0.0530995 0.0339454 0.0
4 7 135.363 247.706 0.000580491 -0.0635784 0.0974363 0.0
4 8 135.083 246.955 6.51299e-05 0.0316362 0.0664786 0.0
4 9 134.606 246.295 0.000234979 -0.196432 0.131172 0.0
4 10 134.372 245.52 7.16977e-06 0.156294 -0.00733204 0.0
4 11 133.971 244.828 0.000112221 -0.0525593 0.0468023 0.0
4 12 133.607 244.114 3.15061e-05 -0.0633449 0.0697715 0.0
4 13 133.313 243.369 1.30891e-05 -0.085941 0.0868046 0.0
4 14 132.959 242.651 0.000397861 -0.0897961 0.0802848 0.0
4 15 132.61 241.93 2.16132e-05 -0.00524637 0.0319899 0.0
4 16 132.402 241.151 4.46488e-05 0.17608 -0.00729003 0.0
4 17 132.096 240.412 7.25168e-05 0.231768 -0.0870406 0.0
4 18 131.723 239.702 0.000197735 0.0408747 0.00835472 0.0
4 19 131.27 239.037 0.000608699 -0.0354764 0.0177707 0.0
4 20 130.94 238.307 0.000387757 -0.00997599 -0.00903758 0.0
4 21 130.634 237.566 0.000474135 0.189114 -0.105372 0.0
4 22 130.314 236.837 0.000803799 -0.0187614 -0.0258021 0.0
4 23 130.109 236.053 0.000579048 0.235989 -0.175722 0.0
4 24 129.726 235.345 0.000879147 -0.164786 0.0231377 0.0
4 25 129.278 234.679 5.00656e-05 0.0562272 -0.120817 0.0
4 26 128.776 234.057 7.21015e-05 0.0473616 -0.112891 0.0
4 27 128.341 233.382 8.22801e-07 0.13756 -0.225517 0.0
4 28 127.812 232.781 4.29887e-05 -0.0401963 -0.056869 0.0
4 29 127.327 232.142 0.000175623 0.16895 -0.228317 0.0
4 30 126.773 231.564 0.000290045 -0.0416167 -0.0745341 0.0
4 31 126.214 230.991 0.000229443 -0.0122234 -0.0465597 0.0
4 32 125.675 230.399 2.18818e-05 -0.0686108 -0.00399972 0.0
4 33 125.077 229.866 3.17237e-05 0.092807 -0.141674 0.0
4 34 124.478 229.335 0.0 -0.114815 0.0648523 0.0
4 35 123.838 228.854 3.81611e-05 -0.176703 0.184928 0.0
4 36 123.208 228.361 1.08227e-06 0.101889 -0.139228 0.0
4 37 122.543 227.917 0.000184943 0.0808124 -0.141798 0.0
4 38 121.868 227.482 0.0 -0.0183311 0.0223002 0.0
4 39 121.136 227.156 0.000313885 -0.157524 0.294986 0.0
4 40 120.384 226.873 1.44206e-06 0.179055 -0.346959 0.0
4 41 119.707 226.443 0.000514458 0.0218167 -0.0691448 0.0
4 42 118.977 226.11 2.48906e-06 0.0119955 0.0130845 0.0
4 43 118.438 225.468 0.000460522 0.0507957 -0.102403 0.0
4 44 117.671 225.184 2.34237e-06 0.129366 -0.23416 0.0
4 45 117.024 224.717 0.000322904 -0.00999211 0.0444619 0.0
4 46 116.34 224.301 2.22384e-07 -0.0607461 0.0549486 0.0
4 47 115.658 223.88 0.000351459 -0.168518 0.320168 0.0
4 48 114.931 223.541 4.63085e-05 -0.0405167 0.0392737 0.0
4 49 114.241 223.139 0.000401889 0.000378538 0.0145216 0.0
4 50 113.573 222.694 0.000134979 -0.161829 0.306604 0.0
4 51 112.874 222.303 0.000144797 -0.138102 0.279935 0.0
4 52 112.1 222.063 0.0002153 0.0157753 -0.0584329 0.0
4 53 111.373 221.739 0.000169023 0.0592309 -0.0765606 0.0
4 54 110.694 221.299 8.80202e-05 -0.0474241 0.155506 0.0
4 55 109.925 221.056 0.000137579 0.0688254 -0.0714188 0.0
4 56 109.206 220.709 3.17929e-05 -0.114661 0.290887 0.0
4 57 108.508 220.316 3.66332e-05 -0.0238068 0.168793 0.0
4 58 107.806 219.932 0.000345465 0.0412218 0.0394141 0.0
4 59 107.108 219.541 2.47501e-05 0.0987714 -0.0649036 0.0
4 60 106.365 219.242 0.000285608 0.162882 -0.22874 0.0
4 61 105.669 218.843 0.000238297 -0.0156796 0.194191 0.0
4 62 104.885 218.636 4.59642e-05 0.139104 -0.120501 0.0
4 63 104.176 218.263 1.49166e-05 -0.0985072 0.3261 0.0
4 64 103.472 217.88 5.0863e-06 0.13178 -0.104606 0.0
4 65 102.865 217.344 3.13363e-05 -0.0693093 0.249272 0.0
4 66 102.108 217.049 2.09426e-05 -0.206294 0.502178 0.0
4 67 101.514 216.488 6.86966e-05 0.140826 -0.0149123 0.0
4 68 100.799 216.125 2.05003e-05 0.0688546 0.14545 0.0
4 69 100.066 215.797 8.91555e-05 0.14552 0.0315904 0.0
4 70 99.4032 215.346 3.60011e-05 0.214973 -0.130003 0.0
4 71 98.6738 215.009 0.000104038 0.0148581 0.248674 0.0
4 72 98.0333 214.524 4.1374e-05 0.155318 0.0261154 0.0
4 73 97.281 214.219 6.74761e-05 0.190485 -0.0496991 0.0
4 74 96.7075 213.634 4.23317e-05 0.183205 -0.0860295 0.0
4 75 95.961 213.316 3.03528e-05 0.124261 -0.0148027 0.0
4 76 95.3606 212.774 3.94644e-05 -0.0026411 0.106432 0.0
4 77 94.6473 212.404 1.03698e-07 0.0425438 0.0313435 0.0
4 78 93.9677 211.98 6.26171e-05 0.051321 0.0641563 0.0
4 79 93.3382 211.483 4.65497e-05 0.0967243 -0.0846332 0.0
4 80 92.7503 210.938 0.000177479 -0.226482 0.325767 0.0
5 1 146.279 281.245 1.07683 0.285237 -0.101631 0.0
5 2 146.308 280.44 1.07695 0.0567312 -0.130495 0.0
5 3 146.556 279.669 1.08425 0.553745 -0.0542016 0.0
5 4 146.611 278.869 1.08917 0.312208 -0.0812185 0.0
5 5 146.711 278.075 1.09343 0.373888 -0.0828476 0.0
5 6 146.722 277.275 1.08906 0.426173 -0.0763825 0.0
5 7 146.819 276.479 1.07609 0.24204 -0.0914726 0.0
5 8 146.851 275.68 1.07927 0.42907 -0.0851293 0.0
5 9 146.82 274.88 1.08159 0.0117858 -0.0893642 0.0
5 10 146.907 274.081 1.07874 0.187901 -0.0895515 0.0
5 11 146.88 273.282 1.08431 -0.143316 -0.0883956 0.0
5 12 146.858 272.485 1.07883 0.228435 -0.0851711 0.0
5 13 146.935 271.679 1.08384 0.493011 -0.0985549 0.0
5 14 146.705 270.895 1.07186 0.0903389 -0.0775749 0.0
5 15 146.679 270.097 1.07655 -0.0343867 -0.0427521 0.0
5 16 146.539 269.311 1.04658 0.203193 -0.067585 0.0
5 17 146.428 268.512 1.05408 0.172574 -0.0857979 0.0
5 18 146.122 267.77 0.978207 -0.0898889 -0.00119628 0.0
5 19 145.886 267.005 0.996666 -0.212886 0.0606151 0.0
5 20 145.551 266.282 0.898789 0.0652745 -0.060345 0.0
5 21 145.199 265.561 0.929719 -0.153113 0.0422084 0.0
5 22 144.792 264.874 0.858829 0.145902 -0.112707 0.0
5 23 144.383 264.186 0.900283 0.0674221 -0.0658637 0.0
5 24 144.034 263.466 0.852758 -0.021177 -0.0151777 0.0
5 25 143.649 262.765 0.924347 0.156771 -0.0914116 0.0
5 26 143.338 262.026 0.883074 0.0628518 -0.0467101 0.0
5 27 143.111 261.257 0.964333 -0.0998162 0.0303455 0.0
5 28 142.682 260.571 0.929932 0.213974 -0.0958459 0.0
5 29 142.484 259.785 0.999951 0.115164 -0.0553437 0.0
5 30 142.078 259.092 0.962662 -0.0667742 0.0370299 0.0
5 31 141.783 258.349 1.02062 0.152425 -0.0489954 0.0
5 32 141.243 257.727 0.974391 -0.00274159 0.0135577 0.0
5 33 140.971 256.969 1.02553 0.367473 -0.145987 0.0
5 34 140.645 256.239 0.989922 0.183744 -0.0573603 0.0
5 35 140.334 255.504 1.03337 0.152577 -0.049086 0.0
5 36 140.176 254.706 1.00729 -0.156586 0.0623053 0.0
5 37 139.738 254.02 1.05223 -0.0801277 0.0423655 0.0
5 38 139.521 253.247 1.04032 -0.127238 0.0533203 0.0
5 39 139.168 252.527 1.07847 0.0718687 -0.0217468 0.0
5 40 138.947 251.755 1.06598 0.17334 -0.0524721 0.0
5 41 138.598 251.032 1.0895 -0.208886 0.0796421 0.0
5 42 138.345 250.271 1.08626 -0.131295 0.0479679 0.0
5 43 138.143 249.496 1.09936 0.125079 -0.032156 0.0
5 44 137.988 248.712 1.09363 -0.10781 0.035119 0.0
5 45 137.856 247.919 1.09243 0.353647 -0.082524 0.0
5 46 137.575 247.166 1.07577 -0.00443602 -0.00823082 0.0
5 47 137.318 246.409 1.08104 0.39539 -0.125377 0.0
5 48 137.136 245.629 1.06972 0.107269 -0.0511985 0.0
5 49 136.87 244.873 1.07754 0.0387438 -0.0522458 0.0
5 50 136.751 244.074 1.06568 -0.0849819 -0.0256871 0.0
5 51 136.481 243.321 1.07482 0.240879 -0.122278 0.0
5 52 136.228 242.561 1.07325 0.173531 -0.128659 0.0
5 53 135.905 241.826 1.0866 0.00397409 -0.0633505 0.0
5 54 135.502 241.133 1.07816 -0.170902 0.0354463 0.0
5 55 135.02 240.488 1.08169 -0.117818 0.0105732 0.0
5 56 134.674 239.766 1.08198 -0.068014 -0.0284712 0.0
5 57 134.328 239.041 1.07616 -0.11019 -0.00897166 0.0
5 58 133.948 238.339 1.07107 -0.162803 0.0248927 0.0
5 59 133.364 237.758 1.06302 -0.11756 -0.00999639 0.0
5 60 132.972 237.064 1.06403 0.0414028 -0.114842 0.0
5 61 132.675 236.311 1.06979 -0.131622 0.00335814 0.0
5 62 132.152 235.686 1.07295 -0.159831 0.0073615 0.0
5 63 131.805 234.968 1.08034 0.162827 -0.176478 0.0
5 64 131.54 234.2 1.0812 -0.175985 0.0268891 0.0
5 65 131.08 233.542 1.08269 -0.106265 -0.0179084 0.0
5 66 130.642 232.871 1.07337 -0.0134183 -0.0670918 0.0
5 67 130.037 232.329 1.07652 -0.182943 0.0544824 0.0
5 68 129.579 231.673 1.06919 -0.105016 0.0276277 0.0
5 69 129.123 231.013 1.06637 0.0958929 -0.122467 0.0
5 70 128.562 230.439 1.06736 0.00744144 -0.0452498 0.0
5 71 128.071 229.806 1.07135 0.114261 -0.11774 0.0
5 72 127.418 229.323 1.06668 0.0556543 -0.0644855 0.0
5 73 126.956 228.659 1.06502 0.148292 -0.137556 0.0
5 74 126.325 228.157 1.05984 0.0206271 0.00746853 0.0
5 75 125.907 227.457 1.0591 0.180062 -0.154059 0.0
5 76 125.226 226.993 1.05516 0.124529 -0.0796853 0.0
5 77 124.796 226.31 1.05777 -0.180011 0.189887 0.0
5 78 124.248 225.723 1.06131 -0.0687203 0.0780529 0.0
5 79 123.747 225.102 1.05701 -0.0509103 0.0863202 0.0
5 80 123.395 224.366 1.04458 0.158685 -0.0627077 0.0
6 1 287.722 121.771 0.0 -0.449681 0.0637775 0.0
6 2 286.913 121.81 0.000108928 -0.205246 0.455762 0.0
6 3 286.142 122.044 3.47429e-05 -0.0853836 0.0533275 0.0
6 4 285.349 122.16 7.5464e-05 -0.285998 0.0615668 0.0
6 5 284.547 122.213 2.87479e-06 -0.190405 0.268716 0.0
6 6 283.746 122.156 6.42837e-05 -0.000960707 -0.0244574 0.0
6 7 282.957 122.035 0.000263425 -0.25105 0.07392 0.0
6 8 282.156 121.974 0.000211911 0.192635 -0.0475529 0.0
6 9 281.377 121.798 0.00042459 -0.14127 0.279377 0.0
6 10 280.58 121.721 4.37111e-07 -0.000627135 0.254502 0.0
6 11 279.794 121.573 0.000286046 0.0830689 0.0166613 0.0
6 12 279.001 121.439 2.87003e-05 0.0793945 0.221719 0.0
6 13 278.218 121.291 0.000462689 0.126913 0.0955574 0.0
6 14 277.446 121.062 0.000246093 0.254103 0.193459 0.0
6 15 276.656 120.936 0.00034958 -0.0288999 0.237599 0.0
6 16 275.856 120.907 8.75092e-05 0.168794 -0.0877575 0.0
6 17 275.052 120.91 3.50581e-05 0.0327414 0.611966 0.0
6 18 274.261 121.016 2.67901e-06 -0.0848915 -0.0215286 0.0
6 19 273.463 121.114 3.74452e-07 -0.046074 0.152707 0.0
6 20 272.668 121.21 0.0 -0.0371324 0.177934 0.0
6 21 271.86 121.164 5.5934e-06 -0.0439271 -0.121966 0.0
6 22 271.078 121.374 0.0001917 -0.0182769 0.287409 0.0
6 23 270.27 121.389 0.0 -0.112004 0.104475 0.0
6 24 269.476 121.436 0.00033571 -0.041785 0.332333 0.0
6 25 268.723 121.819 3.06302e-06 -0.133676 -0.0963138 0.0
6 26 267.898 121.731 0.000512032 -0.1503 -0.0776157 0.0
6 27 267.123 121.921 0.0 0.0583954 0.394718 0.0
6 28 266.334 122.084 0.000601956 -0.22818 -0.0743865 0.0
6 29 265.532 122.088 1.11469e-06 -0.0161797 0.105121 0.0
6 30 264.732 122.076 0.000605593 0.159211 0.230934 0.0
6 31 263.937 122.005 1.0941e-07 -0.33888 0.403983 0.0
6 32 263.132 122.043 0.00053869 0.0799999 -0.453471 0.0
6 33 262.357 121.752 6.0525e-07 -0.0610367 -0.0692192 0.0
6 34 261.557 121.747 0.000409184 -0.138044 0.282769 0.0
6 35 260.767 121.634 3.74277e-06 -0.195572 -0.135973 0.0
6 36 259.962 121.648 0.000213412 -0.114906 0.201077 0.0
6 37 259.16 121.656 0.00010356 0.193756 -0.0230255 0.0
6 38 258.373 121.853 1.96185e-05 0.128279 0.0607071 0.0
6 39 257.572 121.872 0.000323848 0.117713 0.098222 0.0
6 40 256.785 122.039 0.0 0.397733 -0.248974 0.0
6 41 255.98 122.049 0.000499796 0.113344 0.00359166 0.0
6 42 255.201 122.242 0.0 0.104128 -0.0864936 0.0
6 43 254.414 122.397 0.000492668 -0.0949862 -0.0350366 0.0
6 44 253.605 122.347 1.51626e-06 -0.110672 0.624754 0.0
6 45 252.815 122.424 0.000487725 0.0480208 0.0307929 0.0
6 46 252.023 122.586 1.39519e-06 -0.146078 -0.189636 0.0
6 47 251.217 122.618 0.00061428 -0.0671867 -0.112612 0.0
6 48 250.427 122.441 9.27134e-07 0.120798 -0.00371867 0.0
6 49 249.651 122.263 0.000808251 -0.0703618 0.0592515 0.0
6 50 248.865 122.107 8.45477e-07 0.184171 0.153449 0.0
6 51 248.092 121.901 0.000981695 -0.0853873 0.0195236 0.0
6 52 247.338 121.64 2.50676e-06 -0.00122493 0.245116 0.0
6 53 246.558 121.465 0.000823614 -0.0821185 0.134265 0.0
6 54 245.783 121.252 2.4084e-05 0.0428703 0.146963 0.0
6 55 245.06 120.908 0.000305742 -0.187038 0.127902 0.0
6 56 244.244 120.839 0.000307669 -0.00473809 0.204007 0.0
6 57 243.518 120.459 0.0004465 0.159722 -0.119442 0.0
6 58 242.726 120.339 3.87301e-05 -0.00558448 -0.0820641 0.0
6 59 241.941 120.179 0.000702485 0.0635396 -0.192146 0.0
6 60 241.196 119.862 0.000187567 -0.133059 0.0660926 0.0
6 61 240.426 119.642 0.000152986 -0.000789754 0.021607 0.0
6 62 239.625 119.569 2.95074e-05 -0.191506 0.118197 0.0
6 63 238.838 119.408 0.000349921 0.226031 -0.0147393 0.0
6 64 238.038 119.366 2.79219e-05 -0.00476585 0.153562 0.0
6 65 237.261 119.161 0.000198595 0.0156445 0.140721 0.0
6 66 236.46 119.099 4.51426e-07 -0.0339695 0.181072 0.0
6 67 235.708 118.788 5.20377e-05 -0.104986 0.212046 0.0
6 68 234.908 118.698 1.84582e-05 0.00923797 0.00272547 0.0
6 69 234.108 118.655 6.41304e-05 -0.041995 0.215511 0.0
6 70 233.307 118.643 0.000114242 -0.0276434 -0.0588198 0.0
6 71 232.517 118.493 9.5741e-05 -0.0141097 0.230914 0.0
6 72 231.715 118.437 4.63624e-05 0.236564 -0.0876061 0.0
6 73 230.936 118.262 2.88754e-05 0.0989677 -0.27993 0.0
6 74 230.14 118.172 8.38585e-07 -0.00242216 -0.0771751 0.0
6 75 229.348 118.05 2.92008e-06 -0.0852986 0.140068 0.0
6 76 228.568 117.881 1.12916e-07 0.010849 0.0649655 0.0
6 77 227.81 117.615 5.4339e-07 -0.195322 -0.0168186 0.0
6 78 227.041 117.385 1.0994e-06 0.0284804 0.384296 0.0
6 79 226.25 117.284 4.7616e-07 -0.26704 -0.207489 0.0
6 80 225.558 116.787 8.70442e-09 -0.0181534 -0.3118 0.0
7 1 108.775 210.582 1.0756 -0.263085 0.202201 0.0
7 2 108.042 210.192 1.07813 -0.180592 0.0139708 0.0
7 3 107.236 210.147 1.08363 -0.157542 -0.147393 0.0
7 4 106.459 209.958 1.08332 -0.155418 -0.195247 0.0
7 5 105.683 209.752 1.07857 -0.196192 0.0692965 0.0
7 6 104.866 209.784 1.07047 -0.196205 0.0889745 0.0
7 7 104.101 209.529 1.0807 -0.201826 0.0659311 0.0
7 8 103.295 209.485 1.08909 -0.176115 -0.00802321 0.0
7 9 102.522 209.272 1.10432 -0.236713 0.24143 0.0
7 10 101.755 209.046 1.10598 -0.2616 0.337888 0.0
7 11 100.978 208.86 1.11449 -0.156016 -0.0713754 0.0
7 12 100.216 208.602 1.10596 -0.144683 -0.0959886 0.0
7 13 99.4151 208.529 1.12916 -0.181653 0.0567162 0.0
7 14 98.6423 208.312 1.11093 -0.171438 0.0210284 0.0
7 15 97.8326 208.314 1.1493 -0.204962 0.329687 0.0
7 16 97.0675 208.048 1.12553 -0.150099 -0.0500751 0.0
7 17 96.2503 208.09 1.15571 -0.184873 0.181529 0.0
7 18 95.5009 207.741 1.12737 -0.17541 0.246373 0.0
7 19 94.6934 207.718 1.14535 -0.196449 0.231416 0.0
7 20 93.9098 207.562 1.11684 -0.102577 -0.162996 0.0
7 21 93.1387 207.336 1.12729 -0.0834795 -0.192442 0.0
7 22 92.3673 207.144 1.06293 -0.206846 0.229363 0.0
7 23 91.6423 206.774 1.01724 -0.226931 0.273235 0.0
7 24 90.8527 206.653 0.909375 -0.112447 -0.0914 0.0
7 25 90.08 206.469 0.827966 -0.196834 0.20747 0.0
7 26 89.3111 206.296 0.684476 -0.142864 0.0358671 0.0
7 27 88.559 206.03 0.593085 -0.176295 0.13529 0.0
7 28 87.8208 205.76 0.439781 -0.0484565 -0.191811 0.0
7 29 87.1044 205.418 0.341742 -0.0503878 -0.135793 0.0
7 30 86.3655 205.131 0.20868 -0.275593 0.344603 0.0
7 31 85.6619 204.757 0.129079 -0.1254 0.0419109 0.0
7 32 85.0111 204.287 0.0572728 -0.286535 0.350173 0.0
7 33 84.29 203.938 0.02357 -0.394017 0.532026 0.0
7 34 83.596 203.541 0.000606496 -0.0804686 -0.0131742 0.0
7 35 82.9153 203.122 0.00302397 -0.151048 0.114954 0.0
7 36 82.227 202.706 2.9656e-05 -0.0994097 0.0533811 0.0
7 37 81.6328 202.164 0.00643434 -0.255966 0.244126 0.0
7 38 81.0495 201.617 0.0 -0.219353 0.19607 0.0
7 39 80.4709 201.066 0.0178068 -0.132363 0.109748 0.0
7 40 79.922 200.481 0.000195474 -0.0995771 0.080229 0.0
7 41 79.3905 199.884 0.0305087 -0.179944 0.1543 0.0
7 42 78.7333 199.409 0.000408856 -0.0730349 0.0574023 0.0
7 43 78.3549 198.665 0.0430508 0.0682185 -0.0719863 0.0
7 44 77.6458 198.237 0.000122846 -0.100904 0.0825841 0.0
7 45 77.2029 197.558 0.0458269 -0.184724 0.165971 0.0
7 46 76.6014 197.026 0.000303169 -0.046817 0.0365632 0.0
7 47 76.0397 196.456 0.0452634 -0.0604064 0.0491809 0.0
7 48 75.5728 195.802 0.00101574 -0.221041 0.17725 0.0
7 49 75.017 195.222 0.0476505 -0.0960567 0.0886689 0.0
7 50 74.7053 194.463 0.00131249 0.243533 -0.155226 0.0
7 51 74.1135 193.899 0.0413559 -0.240517 0.190667 0.0
7 52 73.7432 193.188 6.46932e-05 -0.283634 0.218705 0.0
7 53 73.2997 192.522 0.0413979 -0.277354 0.211851 0.0
7 54 72.9548 191.798 0.000298851 0.00943061 0.0487901 0.0
7 55 72.4951 191.14 0.0411212 -0.214778 0.166575 0.0
7 56 72.0931 190.45 6.75634e-05 0.0111611 0.0377059 0.0
7 57 71.767 189.716 0.0432115 0.213546 -0.071338 0.0
7 58 71.3523 189.033 0.00016179 0.129239 -0.031725 0.0
7 59 70.9543 188.34 0.0498389 0.0782724 -0.0109687 0.0
7 60 70.6015 187.618 0.000225458 0.273738 -0.124745 0.0
7 61 70.1117 186.985 0.0596027 0.18363 -0.0737771 0.0
7 62 69.6825 186.307 0.000896645 0.337223 -0.212851 0.0
7 63 69.1598 185.701 0.0798546 -0.128819 0.1653 0.0
7 64 68.5731 185.152 0.00874667 0.104075 -0.0363616 0.0
7 65 68.0087 184.593 0.0875883 -0.0666705 0.117029 0.0
7 66 67.536 183.935 0.0130874 0.0993927 -0.0757968 0.0
7 67 66.9191 183.421 0.086295 0.0269861 -0.00374263 0.0
7 68 66.323 182.892 0.0105595 -0.0406893 0.0684853 0.0
7 69 65.6646 182.432 0.0725663 -0.224658 0.257628 0.0
7 70 65.0784 181.887 0.00367256 -0.0578477 0.0667965 0.0
7 71 64.527 181.306 0.0394122 0.0310826 -0.0297944 0.0
7 72 63.9869 180.719 0.0 -0.257861 0.213193 0.0