# 12000000
#nworms:800
#np:60
1 1 254.558 182.867 1.66111 0.0407431 -0.0702274 0.0
1 2 253.945 182.328 1.62831 -0.0791365 0.027894 0.0
1 3 253.146 182.117 1.6432 0.00579006 -0.0340807 0.0
1 4 252.515 181.61 1.60355 0.000997886 -0.068857 0.0
1 5 251.794 181.263 1.63637 -0.0955436 0.128579 0.0
1 6 251.11 180.839 1.59506 -0.220949 0.266571 0.0
1 7 250.515 180.298 1.63849 -0.110331 0.121455 0.0
1 8 250.006 179.676 1.59255 -0.0181356 0.0612586 0.0
1 9 249.467 179.087 1.63693 -0.215848 0.249845 0.0
1 10 248.918 178.5 1.58472 -0.0963711 0.102717 0.0
1 11 248.277 178.016 1.63621 -0.147804 0.182673 0.0
1 12 247.664 177.501 1.5884 -0.0914427 0.0618364 0.0
1 13 247.093 176.94 1.63863 -0.0805577 0.0855633 0.0
1 14 246.549 176.349 1.59148 -0.0335572 -0.00983865 0.0
1 15 246.108 175.68 1.64061 0.00349505 -0.0405466 0.0
1 16 245.708 174.985 1.59686 -0.00533588 -0.0527024 0.0
1 17 245.214 174.353 1.64993 -0.0410289 -0.0239809 0.0
1 18 244.742 173.708 1.60389 -0.0331045 -0.0417138 0.0
1 19 244.421 172.963 1.65553 0.173011 -0.159882 0.0
1 20 243.968 172.308 1.60744 0.0257216 -0.0785429 0.0
1 21 243.516 171.641 1.66155 0.246289 -0.181771 0.0
1 22 243.227 170.891 1.61122 -0.109364 -0.0433869 0.0
1 23 242.98 170.13 1.66466 0.0897488 -0.103397 0.0
1 24 242.829 169.342 1.61065 -0.172348 -0.0014744 0.0
1 25 242.798 168.538 1.66603 -0.0932962 -0.0367271 0.0
1 26 242.422 167.796 1.61158 0.0426361 -0.0694942 0.0
1 27 242.408 166.986 1.66932 0.126595 -0.0798067 0.0
1 28 242.22 166.21 1.61266 0.133369 -0.0484168 0.0
1 29 241.974 165.444 1.67186 -0.164951 -0.000524011 0.0
1 30 241.902 164.642 1.61484 0.0693576 -0.035327 0.0
1 31 241.92 163.844 1.6759 0.127983 -0.0360048 0.0
1 32 241.94 163.042 1.61682 0.0788542 -0.0202695 0.0
1 33 242.067 162.253 1.67742 -0.188001 -0.0914621 0.0
1 34 241.935 161.44 1.6223 -0.273625 -0.0662351 0.0
1 35 242.083 160.654 1.67691 -0.183208 -0.105178 0.0
1 36 242.308 159.882 1.61982 0.212121 0.0304266 0.0
1 37 242.481 159.105 1.67355 -0.130727 -0.107429 0.0
1 38 242.592 158.307 1.6153 -0.0633246 -0.0386321 0.0
1 39 242.798 157.536 1.66651 -0.179613 -0.145987 0.0
1 40 243.082 156.783 1.60951 0.101595 0.00955602 0.0
1 41 243.47 156.082 1.65981 0.192661 0.00453257 0.0
1 42 243.921 155.421 1.60291 -0.131251 -0.122703 0.0
1 43 244.222 154.669 1.65611 0.0281165 -0.0862769 0.0
1 44 244.697 154.023 1.60123 -0.174314 -0.13538 0.0
1 45 245.089 153.324 1.65165 0.160583 0.0134359 0.0
1 46 245.506 152.643 1.59779 -0.110995 -0.140236 0.0
1 47 246.06 152.051 1.65123 0.0674596 -0.0180356 0.0
1 48 246.433 151.339 1.60165 0.111744 -0.01167 0.0
1 49 246.896 150.684 1.654 0.0220525 -0.0223069 0.0
1 50 247.388 150.058 1.61106 -0.0745336 -0.128731 0.0
1 51 247.895 149.429 1.65664 -0.206085 -0.167219 0.0
1 52 248.218 148.69 1.61839 -0.0790437 -0.0901073 0.0
1 53 248.482 147.936 1.66138 0.262428 0.0704438 0.0
1 54 248.72 147.172 1.6328 -0.233775 -0.0712029 0.0
1 55 249.03 146.431 1.67659 0.117047 0.0654183 0.0
1 56 249.234 145.657 1.65278 0.0054313 0.0457849 0.0
1 57 249.448 144.886 1.69207 -0.0487172 0.053936 0.0
1 58 249.654 144.113 1.68005 0.000428363 0.0304012 0.0
1 59 249.725 143.309 1.70899 -0.0879026 0.110177 0.0
1 60 250.048 142.563 1.70861 -0.00557524 0.0253398 0.0
2 1 82.6485 252.047 2.83647 0.06636 0.0387851 0.0
2 2 83.2755 252.555 2.87553 0.0367041 -0.0342244 0.0
2 3 83.7348 253.221 2.86125 0.0653791 0.0172745 0.0
2 4 84.3368 253.75 2.91265 0.210147 -0.223181 0.0
2 5 84.8889 254.331 2.8693 0.171149 -0.119436 0.0
2 6 85.3785 254.963 2.92542 -0.117415 0.0376097 0.0
2 7 85.7221 255.699 2.87553 -0.0576335 -0.0272909 0.0
2 8 86.2659 256.292 2.93303 0.0372028 -0.0776214 0.0
2 9 86.7588 256.919 2.88329 0.190441 -0.25449 0.0
2 10 87.2799 257.528 2.9318 -0.279392 0.106359 0.0
2 11 87.7325 258.191 2.88782 0.268152 -0.250601 0.0
2 12 88.069 258.921 2.9225 -0.195479 -0.0194401 0.0
2 13 88.4134 259.639 2.89351 -0.0838771 -0.0391277 0.0
2 14 88.7249 260.381 2.90726 0.0822363 -0.178046 0.0
2 15 89.1349 261.069 2.89651 -0.0058703 -0.0553665 0.0
2 16 89.6913 261.659 2.89152 -0.123604 0.0319237 0.0
2 17 90.0572 262.379 2.9005 -0.194961 0.121526 0.0
2 18 90.5544 263.005 2.87836 -0.146488 0.110436 0.0
2 19 91.0677 263.624 2.90628 0.162645 -0.0915925 0.0
2 20 91.3869 264.372 2.8692 0.0906685 -0.0186884 0.0
2 21 91.8114 265.045 2.90819 0.031372 0.0234925 0.0
2 22 92.3098 265.681 2.86312 0.0382801 0.020028 0.0
2 23 92.9338 266.19 2.90709 -0.138779 0.169056 0.0
2 24 93.5608 266.682 2.86528 -0.0704296 0.115111 0.0
2 25 94.2415 267.116 2.91395 0.130171 -0.24264 0.0
2 26 94.8455 267.638 2.86911 0.162302 -0.27882 0.0
2 27 95.4513 268.169 2.92057 -0.0808185 0.0459382 0.0
2 28 96.1885 268.509 2.86658 -0.0849808 0.0337346 0.0
2 29 96.8382 268.971 2.92214 0.108966 -0.198157 0.0
2 30 97.5203 269.397 2.86925 0.0718556 -0.203186 0.0
2 31 98.1742 269.852 2.92146 0.0932582 -0.108184 0.0
2 32 98.7819 270.382 2.87598 0.0823923 -0.223161 0.0
2 33 99.4699 270.79 2.92376 -0.104779 0.232587 0.0
2 34 100.168 271.183 2.87293 0.0042958 -0.0257161 0.0
2 35 100.797 271.681 2.92912 -0.140453 0.337803 0.0
2 36 101.491 272.082 2.87784 0.208305 -0.267485 0.0
2 37 102.082 272.637 2.93301 0.0766562 0.0289467 0.0
2 38 102.789 273.015 2.87537 -0.0381947 0.071098 0.0
2 39 103.493 273.4 2.93014 0.139148 -0.189604 0.0
2 40 104.101 273.931 2.87014 -0.00932862 0.0991483 0.0
2 41 104.67 274.489 2.93083 -0.250513 0.149551 0.0
2 42 105.248 275.046 2.87013 -0.0671637 0.129878 0.0
2 43 105.759 275.662 2.92951 -0.041935 -0.037474 0.0
2 44 106.231 276.311 2.8722 -0.0569297 0.0134888 0.0
2 45 106.606 277.019 2.93285 0.116085 -0.141742 0.0
2 46 107.0 277.717 2.88246 -0.284521 0.0225398 0.0
2 47 107.01 278.568 2.93166 0.24129 -0.19545 0.0
2 48 107.397 279.268 2.88345 0.214457 -0.189742 0.0
2 49 107.74 279.993 2.93868 -0.164355 0.0116207 0.0
2 50 108.192 280.654 2.89102 0.088865 -0.115021 0.0
2 51 108.513 281.393 2.95489 0.271421 -0.25305 0.0
2 52 108.997 282.034 2.90701 0.330816 -0.239669 0.0
2 53 109.428 282.707 2.97173 -0.124643 -0.0518455 0.0
2 54 109.709 283.465 2.92255 -0.29771 0.0832914 0.0
2 55 110.061 284.178 2.98765 -0.287294 -0.0481585 0.0
2 56 110.628 284.775 2.94741 -0.0457866 -0.133484 0.0
2 57 110.986 285.485 3.00715 -0.257509 -0.0897229 0.0
2 58 111.258 286.249 2.97798 -0.107311 -0.177473 0.0
2 59 111.369 287.04 3.01657 0.101897 -0.209189 0.0
2 60 111.44 287.839 3.00339 0.305914 -0.248463 0.0
3 1 308.16 85.3218 0.0238321 -0.189381 0.0904135 0.0
3 2 307.99 84.5166 0.00506648 0.209348 0.176822 0.0
3 3 308.064 83.7231 0.0289215 -0.0372423 0.0982743 0.0
3 4 308.187 82.9288 0.000237842 0.230625 0.165553 0.0
3 5 308.169 82.1226 0.0390043 0.165375 0.184477 0.0
3 6 308.343 81.3382 7.42489e-05 -0.147387 0.154083 0.0
3 7 308.431 80.5382 0.0437097 0.185954 0.144946 0.0
3 8 308.341 79.7358 0.00395534 0.0915686 0.1188 0.0
3 9 308.176 78.9558 0.0485134 0.164832 0.0525043 0.0
3 10 308.032 78.1668 0.0061294 0.0594387 0.0893685 0.0
3 11 308.031 77.3642 0.0508515 0.075466 0.0391582 0.0
3 12 307.948 76.5689 0.00770002 0.0709394 0.0730538 0.0
3 13 307.798 75.7839 0.046565 0.257553 0.0174422 0.0
3 14 307.686 74.9908 0.00448972 -0.542597 0.150235 0.0
3 15 307.395 74.237 0.0381672 -0.0809992 0.0642797 0.0
3 16 307.203 73.4638 0.00422365 -0.0486261 0.146419 0.0
3 17 306.994 72.6885 0.0296096 0.113478 0.0403503 0.0
3 18 306.866 71.8992 0.00854167 -0.0426532 0.147317 0.0
3 19 306.738 71.1068 0.0214657 0.0395936 0.07914 0.0
3 20 306.499 70.3403 0.0159764 0.176082 -0.0715422 0.0
3 21 306.088 69.6432 0.011996 -0.0153386 0.0721055 0.0
3 22 305.761 68.9187 0.0236155 0.131577 -0.0736153 0.0
3 23 305.453 68.1768 0.00427277 -0.0452007 -0.00680906 0.0
3 24 305.079 67.4699 0.0356593 0.203425 -0.131671 0.0
3 25 304.638 66.7981 0.00428407 0.0195818 -0.08667 0.0
3 26 304.045 66.2458 0.0459734 0.035791 0.0465725 0.0
3 27 303.509 65.6595 0.000865283 -0.0368244 -0.161013 0.0
3 28 303.045 65.0006 0.0484349 0.246971 -0.23983 0.0
3 29 302.425 64.4768 0.00390322 0.186055 -0.207127 0.0
3 30 302.008 63.7879 0.0541671 0.0818284 -0.162333 0.0
3 31 301.483 63.1816 0.00826806 0.0793336 -0.146682 0.0
3 32 300.976 62.5655 0.0555596 -0.167192 0.152475 0.0
3 33 300.415 61.9892 0.00757725 0.00902487 0.0245343 0.0
3 34 299.999 61.2982 0.0519224 -0.247352 0.221733 0.0
3 35 299.46 60.6977 0.00375943 0.19284 -0.106655 0.0
3 36 298.803 60.2351 0.0475585 0.123199 -0.167033 0.0
3 37 298.181 59.7304 0.00139512 -0.00580947 0.0115167 0.0
3 38 297.607 59.1725 0.0517751 -0.0019521 0.092747 0.0
3 39 297.033 58.6138 0.00424555 -0.113822 0.0377192 0.0
3 40 296.5 58.0191 0.0547737 0.120213 -0.124152 0.0
3 41 295.99 57.3998 0.0082558 -0.152559 -0.134528 0.0
3 42 295.377 56.8823 0.0525668 -0.07484 -0.113188 0.0
3 43 294.847 56.2827 0.00994116 -0.380316 -0.0765328 0.0
3 44 294.345 55.6602 0.0505694 -0.210747 -0.0469035 0.0
3 45 293.692 55.1738 0.00690447 -0.160517 -0.168868 0.0
3 46 293.169 54.574 0.0519207 -0.285153 0.107181 0.0
3 47 292.674 53.9373 0.00697483 -0.0534136 -0.0785636 0.0
3 48 292.102 53.3798 0.0484847 -0.0330361 -0.0401266 0.0
3 49 291.496 52.8521 0.00386492 0.00222322 0.156124 0.0
3 50 290.842 52.3923 0.0470548 0.0200103 -0.00832895 0.0
3 51 290.085 52.1015 0.00642994 0.110009 0.0374082 0.0
3 52 289.419 51.6643 0.0492722 -0.125848 0.18813 0.0
3 53 288.775 51.1812 0.00766385 -0.0190945 0.289743 0.0
3 54 288.213 50.6203 0.0481069 0.00266106 -0.0584285 0.0
3 55 287.812 49.9026 0.00535534 0.327986 -0.127224 0.0
3 56 287.203 49.3838 0.0383397 -0.35115 0.126531 0.0
3 57 286.509 48.976 0.0 -0.117705 0.0615186 0.0
3 58 285.89 48.472 0.0252369 -0.0843553 -0.129263 0.0
3 59 285.359 47.868 0.00127956 -0.27783 -0.0209607 0.0
3 60 284.837 47.2655 0.0154451 -0.291326 0.0255614 0.0
4 1 183.635 226.753 3.19992 -0.186503 -0.0667288 0.0
4 2 183.257 227.513 3.15692 0.243597 -0.00869175 0.0
4 3 183.261 228.309 3.1491 0.158125 -0.00160389 0.0
4 4 183.264 229.115 3.09711 0.0313613 0.000253893 0.0
4 5 183.452 229.897 3.10755 0.0213552 0.00190296 0.0
4 6 183.574 230.686 3.04946 0.110364 0.000872449 0.0
4 7 183.703 231.477 3.07552 0.110376 -0.0113135 0.0
4 8 183.879 232.258 3.01653 0.146729 0.0050847 0.0
4 9 183.725 233.077 3.04842 0.117541 0.00181554 0.0
4 10 183.955 233.857 2.98717 0.046467 0.0220523 0.0
4 11 183.989 234.655 3.02437 0.116933 0.0193544 0.0
4 12 183.967 235.458 2.96618 -0.043993 0.0318525 0.0
4 13 184.045 236.254 3.0036 0.252232 0.0251956 0.0
4 14 183.85 237.055 2.95111 0.0242672 0.0386132 0.0
4 15 183.994 237.852 2.98853 0.0682795 0.0285997 0.0
4 16 184.009 238.649 2.93407 -0.0408767 0.0345383 0.0
4 17 183.959 239.452 2.97156 0.207356 0.0457463 0.0
4 18 183.857 240.243 2.9178 -0.148269 0.0116918 0.0
4 19 183.751 241.038 2.95944 -0.152416 0.010902 0.0
4 20 183.709 241.838 2.90469 -0.0091057 0.0197366 0.0
4 21 183.774 242.639 2.9481 0.1473 0.0107604 0.0
4 22 183.765 243.44 2.89496 0.390383 0.0232612 0.0
4 23 183.67 244.238 2.93768 0.348338 0.033385 0.0
4 24 183.551 245.029 2.88634 -0.284873 -0.0581491 0.0
4 25 183.354 245.808 2.92814 -0.070576 -0.0365386 0.0
4 26 183.161 246.584 2.87797 -0.20237 -0.0291102 0.0
4 27 183.074 247.385 2.92368 -0.168115 -0.0329563 0.0
4 28 182.962 248.174 2.8751 -0.26746 -0.0382622 0.0
4 29 182.944 248.983 2.91681 0.172869 0.0174798 0.0
4 30 182.733 249.759 2.86989 0.0554743 0.00267827 0.0
4 31 182.595 250.546 2.91601 -0.352074 -0.0739561 0.0
4 32 182.41 251.327 2.86899 -0.144138 -0.0467511 0.0
4 33 182.162 252.088 2.91327 -0.0320504 0.0274285 0.0
4 34 181.884 252.839 2.86352 -0.236389 -0.0845443 0.0
4 35 181.636 253.599 2.91365 -0.0433719 0.0302614 0.0
4 36 181.221 254.297 2.86479 0.0442085 0.0339927 0.0
4 37 181.075 255.096 2.91419 -0.0549135 0.0358915 0.0
4 38 180.649 255.791 2.86771 0.219533 0.101423 0.0
4 39 180.539 256.602 2.91904 0.0844107 0.104924 0.0
4 40 180.206 257.329 2.87569 -0.059185 0.0231984 0.0
4 41 179.915 258.077 2.92572 0.0614989 0.11003 0.0
4 42 179.448 258.737 2.87873 -0.131289 -0.0117587 0.0
4 43 179.139 259.477 2.92547 -0.0176121 0.0783589 0.0
4 44 178.727 260.164 2.88269 -0.0655553 0.0173444 0.0
4 45 178.267 260.819 2.92851 -0.0558762 0.0503774 0.0
4 46 177.804 261.471 2.88769 0.0541676 0.0722358 0.0
4 47 177.368 262.142 2.93439 0.0253629 0.0928039 0.0
4 48 176.923 262.806 2.89193 0.0223482 0.0184206 0.0
4 49 176.391 263.408 2.93749 -0.0100374 0.0287548 0.0
4 50 175.94 264.071 2.89558 0.0867864 0.0376618 0.0
4 51 175.617 264.809 2.94087 0.201541 0.0954595 0.0
4 52 175.336 265.555 2.89851 -0.162603 -0.0741644 0.0
4 53 175.111 266.326 2.94314 0.180951 0.041729 0.0
4 54 174.967 267.112 2.90094 -0.113824 -0.0749749 0.0
4 55 174.876 267.909 2.94226 -0.185688 -0.066992 0.0
4 56 174.729 268.694 2.9023 -0.0904842 -0.0870306 0.0
4 57 174.541 269.475 2.9354 0.0633428 -0.0559062 0.0
4 58 174.343 270.247 2.9011 -0.132298 -0.122368 0.0
4 59 174.146 271.026 2.9189 -0.302642 -0.173234 0.0
4 60 173.903 271.785 2.89404 0.0055498 -0.103895 0.0
5 1 150.626 101.363 1.71866 -0.276709 -0.195879 0.0
5 2 150.317 102.114 1.68379 -0.0448331 -0.123445 0.0
5 3 150.12 102.88 1.69255 0.0683666 -0.0875085 0.0
5 4 150.04 103.691 1.6564 0.0403337 -0.0813427 0.0
5 5 149.706 104.426 1.67962 -0.145032 -0.140207 0.0
5 6 149.5 105.197 1.6417 0.118019 -0.0216485 0.0
5 7 149.262 105.962 1.67646 -0.24319 -0.149985 0.0
5 8 149.18 106.765 1.63893 0.151018 0.00160912 0.0
5 9 148.949 107.53 1.67817 -0.0311243 -0.0799387 0.0
5 10 148.812 108.322 1.63611 -0.0276085 -0.021151 0.0
5 11 148.542 109.076 1.67892 0.248558 0.0167195 0.0
5 12 148.337 109.852 1.63752 0.28959 0.0839104 0.0
5 13 148.025 110.59 1.68129 0.231593 0.0214175 0.0
5 14 147.726 111.334 1.63776 0.0660611 0.00671703 0.0
5 15 147.331 112.032 1.685 -0.207009 -0.201591 0.0
5 16 146.886 112.7 1.6416 0.408134 0.230214 0.0
5 17 146.292 113.251 1.68695 0.211011 0.128529 0.0
5 18 145.814 113.891 1.64349 0.0533551 -0.0507092 0.0
5 19 145.298 114.508 1.68827 -0.0622544 -0.100189 0.0
5 20 144.59 114.928 1.64232 0.1478 0.0779325 0.0
5 21 144.046 115.509 1.68427 0.0346643 0.00496191 0.0
5 22 143.525 116.127 1.63481 -0.12136 -0.164942 0.0
5 23 142.897 116.625 1.67434 -0.152004 -0.183962 0.0
5 24 142.275 117.129 1.62476 0.0716954 0.0563427 0.0
5 25 141.691 117.68 1.66228 0.268986 0.274873 0.0
5 26 141.192 118.309 1.60905 -0.0587457 -0.0885703 0.0
5 27 140.622 118.873 1.64265 -0.0503111 -0.0336006 0.0
5 28 140.042 119.425 1.59299 -0.0803487 -0.141609 0.0
5 29 139.354 119.853 1.62494 -0.157849 -0.207906 0.0
5 30 138.838 120.48 1.57724 -0.0602327 -0.13369 0.0
5 31 138.203 120.967 1.60964 0.0138829 -0.059681 0.0
5 32 137.6 121.495 1.56273 -0.133293 -0.232752 0.0
5 33 136.962 121.978 1.593 0.115289 0.0439019 0.0
5 34 136.396 122.551 1.5453 0.00911975 -0.0801371 0.0
5 35 135.734 123.006 1.57558 0.0891822 0.00670541 0.0
5 36 135.047 123.413 1.52867 0.0374527 -0.0581751 0.0
5 37 134.328 123.769 1.56251 0.0180502 -0.103611 0.0
5 38 133.668 124.227 1.5156 0.181789 0.15202 0.0
5 39 133.097 124.791 1.55281 0.0277122 -0.0993116 0.0
5 40 132.522 125.345 1.50441 0.190475 0.145119 0.0
5 41 131.886 125.833 1.54479 0.0718775 -0.0413657 0.0
5 42 131.278 126.352 1.49368 -0.109735 -0.227229 0.0
5 43 130.678 126.878 1.53865 0.115556 0.00459105 0.0
5 44 130.05 127.382 1.48709 -0.0193375 -0.104631 0.0
5 45 129.631 128.084 1.52954 0.139171 0.0373204 0.0
5 46 129.003 128.594 1.47695 -0.0361946 -0.105349 0.0
5 47 128.527 129.239 1.51896 -0.0823386 -0.146259 0.0
5 48 128.09 129.909 1.46442 0.00113908 -0.0670405 0.0
5 49 127.588 130.534 1.50671 -0.0584581 -0.102025 0.0
5 50 127.032 131.109 1.45056 0.196881 0.111642 0.0
5 51 126.493 131.701 1.48638 0.0671118 0.0291338 0.0
5 52 125.857 132.192 1.42782 0.026085 -0.0670798 0.0
5 53 125.272 132.736 1.46506 0.0545241 0.0141575 0.0
5 54 124.644 133.233 1.3995 -0.0168048 -0.136321 0.0
5 55 124.056 133.774 1.4291 -0.100393 -0.185292 0.0
5 56 123.477 134.329 1.36752 -0.0375382 -0.190738 0.0
5 57 122.847 134.821 1.389 -0.133435 -0.268571 0.0
5 58 122.188 135.279 1.33401 0.134989 0.00505583 0.0
5 59 121.489 135.666 1.33463 -0.0167181 -0.110878 0.0
5 60 120.688 135.84 1.29057 0.145686 0.00514074 0.0
6 1 195.8 57.59 0.0204659 -0.116978 0.037626 0.0
6 2 196.161 58.3214 0.000835698 0.127978 -0.0335945 0.0
6 3 196.312 59.1068 0.0277904 -0.188351 -0.0339437 0.0
6 4 196.461 59.8947 7.1727e-05 -0.286946 0.0996457 0.0
6 5 196.503 60.6934 0.0397026 -0.0583455 -0.0283971 0.0
6 6 196.367 61.4961 0.00610397 -0.0791154 0.148532 0.0
6 7 196.486 62.2936 0.04515 0.0915267 -0.061701 0.0
6 8 196.612 63.0812 0.0065609 0.157096 0.0128694 0.0
6 9 196.722 63.8784 0.0522537 0.0463691 0.0187156 0.0
6 10 196.989 64.6353 0.00627196 0.0932919 0.0202174 0.0
6 11 197.15 65.4243 0.0516926 -0.111288 0.00590659 0.0
6 12 197.56 66.1266 0.00806525 -0.0136571 0.0404741 0.0
6 13 197.684 66.9354 0.0499495 -0.0362292 -0.170613 0.0
6 14 198.048 67.6493 0.00977072 0.00254954 -0.0576419 0.0
6 15 198.31 68.4043 0.0521897 -0.1673 -0.043241 0.0
6 16 198.672 69.1236 0.00660613 0.0397918 -0.0885713 0.0
6 17 198.916 69.885 0.0529347 0.0202198 -0.114068 0.0
6 18 199.093 70.6683 0.00226141 -0.20405 -0.0133721 0.0
6 19 199.224 71.4561 0.0542203 -0.245338 -0.0628367 0.0
6 20 199.243 72.263 0.00443613 -0.00872985 -0.0301325 0.0
6 21 199.348 73.0502 0.0549468 -0.00109467 -0.0636298 0.0
6 22 199.42 73.8524 0.00262345 -0.211789 0.0086444 0.0
6 23 199.645 74.6239 0.0519568 -0.108896 0.093603 0.0
6 24 199.989 75.3492 0.00166415 0.245042 -0.219959 0.0
6 25 200.383 76.0457 0.0480696 0.337009 -0.189981 0.0
6 26 200.998 76.5933 0.000217151 0.031117 -0.060882 0.0
6 27 201.342 77.3271 0.0476352 -0.0756174 0.142034 0.0
6 28 201.817 77.9735 0.000315894 -0.0941366 0.115915 0.0
6 29 202.392 78.5376 0.0399761 -0.127229 0.196222 0.0
6 30 202.805 79.2367 0.000983906 0.155667 -0.0486703 0.0
6 31 203.415 79.7679 0.0291237 0.144242 -0.106828 0.0
6 32 203.963 80.3468 0.00581566 0.0869809 0.0694806 0.0
6 33 204.516 80.9302 0.0155923 -0.0908916 0.0679794 0.0
6 34 205.103 81.4706 0.0165088 -0.0932455 0.292225 0.0
6 35 205.563 82.144 0.00722625 -0.0116325 0.18551 0.0
6 36 206.231 82.604 0.0313875 -0.0727196 0.129154 0.0
6 37 206.773 83.1956 0.00433163 -0.0338236 -0.0034743 0.0
6 38 207.381 83.7136 0.0440684 0.0925626 0.0358595 0.0
6 39 207.926 84.308 0.00307385 0.00331438 -0.164921 0.0
6 40 208.599 84.749 0.047158 0.0407178 0.0920411 0.0
6 41 209.258 85.1962 0.00269062 -0.0788601 -0.00427919 0.0
6 42 210.037 85.4505 0.0487983 -0.0923532 0.000929419 0.0
6 43 210.664 85.9511 0.00202635 -0.0131435 -0.0684605 0.0
6 44 211.39 86.3069 0.0532582 -0.202154 0.130515 0.0
6 45 211.994 86.8378 0.0024311 -0.154685 0.0859693 0.0
6 46 212.648 87.2938 0.0542498 -0.00763473 -0.01375 0.0
6 47 213.326 87.7277 0.00363864 -0.126892 -0.00940382 0.0
6 48 213.919 88.2671 0.0559933 -0.000597549 -0.186462 0.0
6 49 214.526 88.7892 0.00398089 0.0357529 -0.171043 0.0
6 50 215.267 89.1281 0.0564692 -0.0937498 -0.157558 0.0
6 51 215.909 89.5989 0.00481453 0.00682786 0.0227698 0.0
6 52 216.521 90.1179 0.0555817 -0.189358 0.170579 0.0
6 53 217.198 90.5502 0.00466839 0.0127815 0.0300754 0.0
6 54 217.751 91.1379 0.0499703 -0.0842762 0.0870215 0.0
6 55 218.353 91.6592 0.00207438 0.0473461 -0.0226954 0.0
6 56 218.977 92.1653 0.0431573 -0.0676135 -0.0834605 0.0
6 57 219.629 92.6277 0.00122714 -0.215403 0.0861212 0.0
6 58 220.313 93.0466 0.0270579 -0.180566 0.17266 0.0
6 59 220.985 93.4788 0.000191769 -0.328185 0.357004 0.0
6 60 221.403 94.2183 0.013772 -0.216554 0.298245 0.0
7 1 155.581 78.5182 1.45893 0.148247 -0.121404 0.0
7 2 155.721 79.3208 1.48814 0.352577 0.0158564 0.0
7 3 155.666 80.117 1.46795 -0.160748 -0.13244 0.0
7 4 155.503 80.9091 1.50197 0.124828 0.00335526 0.0
7 5 155.196 81.6494 1.46028 -0.0630026 -0.0833341 0.0
7 6 154.754 82.3252 1.49624 -0.0879808 -0.0817115 0.0
7 7 154.427 83.0536 1.44929 -0.145214 -0.0847996 0.0
7 8 154.12 83.7942 1.48805 0.106356 0.0416958 0.0
7 9 153.835 84.5414 1.43718 -0.0334297 -0.000457292 0.0
7 10 153.508 85.2744 1.47798 0.113509 0.0624283 0.0
7 11 152.985 85.8988 1.42503 -0.212502 -0.104916 0.0
7 12 152.636 86.6178 1.46584 0.0488428 0.0368467 0.0
7 13 152.187 87.2861 1.41516 0.0598817 0.0456152 0.0
7 14 151.8 87.9846 1.45586 -0.0204538 -0.000181491 0.0
7 15 151.469 88.7164 1.40585 0.212846 0.130862 0.0
7 16 151.082 89.4163 1.44809 -0.201266 -0.110817 0.0
7 17 150.648 90.0904 1.39624 0.00233028 0.0257022 0.0
7 18 150.41 90.8694 1.44049 0.179009 0.0757854 0.0
7 19 149.999 91.5537 1.39001 -0.115661 -0.0122389 0.0
7 20 149.563 92.2266 1.43356 0.0421476 0.0049187 0.0
7 21 149.211 92.9473 1.38186 -0.112311 -0.0580043 0.0
7 22 148.873 93.6683 1.42701 -0.214034 -0.090907 0.0
7 23 148.592 94.4238 1.37814 -0.177037 -0.118515 0.0
7 24 148.172 95.106 1.42513 0.1526 0.0790101 0.0
7 25 147.748 95.7838 1.37635 0.215026 0.109432 0.0
7 26 147.358 96.4821 1.42146 -0.297932 -0.195098 0.0
7 27 146.91 97.1457 1.37838 0.312779 0.141186 0.0
7 28 146.566 97.8726 1.42298 -0.00308637 -0.0193811 0.0
7 29 146.117 98.5358 1.37599 -0.0822311 -0.102449 0.0
7 30 145.588 99.1406 1.4185 -0.18633 -0.123074 0.0
7 31 145.172 99.828 1.37336 0.333439 0.214629 0.0
7 32 144.684 100.461 1.41521 -0.100654 -0.0337503 0.0
7 33 144.221 101.115 1.37055 -0.0555286 -0.0216553 0.0
7 34 143.821 101.81 1.41383 -0.113214 -0.0235523 0.0
7 35 143.502 102.547 1.36637 -0.0694194 0.000635089 0.0
7 36 143.253 103.306 1.41074 -0.19937 -0.0106265 0.0
7 37 142.862 104.015 1.36181 0.111815 0.0946795 0.0
7 38 142.647 104.79 1.40932 -0.0129093 0.108961 0.0
7 39 142.521 105.579 1.35935 -0.0717802 0.0736098 0.0
7 40 142.277 106.348 1.41358 -0.455365 0.0487852 0.0
7 41 142.28 107.159 1.36217 0.0335232 0.115201 0.0
7 42 142.107 107.941 1.41444 0.0734212 0.140257 0.0
7 43 141.984 108.731 1.36777 0.112919 0.131239 0.0
7 44 141.844 109.522 1.41835 0.0184534 0.129181 0.0
7 45 141.588 110.284 1.36727 -0.128742 0.0934779 0.0
7 46 141.209 110.993 1.4168 -0.159722 0.00930656 0.0
7 47 141.045 111.792 1.37068 0.0583075 0.135331 0.0
7 48 140.655 112.495 1.42106 -0.449743 -0.142675 0.0
7 49 140.282 113.203 1.37426 -0.0755306 0.00202125 0.0
7 50 139.999 113.955 1.41855 0.100793 0.113879 0.0
7 51 139.628 114.665 1.37682 0.0714769 0.0391852 0.0
7 52 139.198 115.342 1.41808 0.12171 0.128804 0.0
7 53 138.726 115.986 1.37751 -0.108863 -0.0614003 0.0
7 54 138.318 116.679 1.41371 -0.10836 -0.0110236 0.0
7 55 137.745 117.248 1.36674 -0.0390882 0.0318847 0.0
7 56 137.292 117.908 1.39633 0.0145547 0.128683 0.0
7 57 136.819 118.551 1.35529 -0.0395071 0.104035 0.0
7 58 136.469 119.281 1.37501 -0.176986 0.065722 0.0
7 59 136.078 119.968 1.34441 -0.0776148 0.120024 0.0
7 60 135.448 120.515 1.35161 -0.0598063 0.201198 0.0
8 1 192.207 130.309 2.84956 -0.114855 -0.0281009 0.0
8 2 191.81 131.018 2.87662 -0.00232412 0.06817 0.0
8 3 191.224 131.571 2.86325 -0.139795 -0.053984 0.0
8 4 190.751 132.217 2.89668 -0.0162286 0.0530313 0.0
8 5 190.212 132.81 2.86467 -0.0692806 -0.00853636 0.0
8 6 189.754 133.47 2.90616 -0.160336 -0.0658291 0.0
8 7 189.424 134.205 2.86507 -0.158816 -0.064321 0.0
8 8 189.202 134.973 2.90736 0.10949 0.027676 0.0
8 9 188.753 135.657 2.86387 -0.171565 -0.0741065 0.0
8 10 188.656 136.476 2.90559 -0.21369 -0.105948 0.0
8 11 188.291 137.19 2.86395 0.0864518 -0.0023701 0.0
8 12 188.008 137.938 2.90895 0.0742527 0.00439 0.0
8 13 187.702 138.678 2.86584 0.167437 0.0194829 0.0
8 14 187.694 139.508 2.91139 0.0599196 -0.0125963 0.0
8 15 187.387 140.248 2.86334 0.0394689 -0.0197593 0.0
8 16 187.121 141.003 2.91325 -0.00162623 -0.0498839 0.0
8 17 186.827 141.746 2.86259 -0.0864657 -0.0729407 0.0
8 18 186.537 142.493 2.91529 0.184902 0.00730427 0.0
8 19 186.381 143.284 2.86528 0.0699291 -0.0368853 0.0
8 20 186.295 144.075 2.91532 -0.0623795 -0.0392079 0.0
8 21 186.444 144.885 2.86345 0.00717398 -0.0406978 0.0
8 22 186.32 145.676 2.91305 0.0331314 -0.0394548 0.0
8 23 186.14 146.459 2.86429 0.2503 -0.00554034 0.0
8 24 186.245 147.273 2.91451 -0.0615039 -0.0396697 0.0
8 25 186.008 148.053 2.86613 0.0930716 -0.0254618 0.0
8 26 185.995 148.852 2.91352 0.131408 -0.00426416 0.0
8 27 185.993 149.655 2.86376 -0.0816628 -0.0318864 0.0
8 28 185.716 150.428 2.91272 -0.0724159 -0.0317189 0.0
8 29 185.711 151.228 2.86761 -0.0767363 -0.0316983 0.0
8 30 185.536 152.018 2.91661 0.0194865 -0.00690688 0.0
8 31 185.541 152.818 2.87648 0.210172 -0.00664484 0.0
8 32 185.61 153.618 2.92066 -0.0127247 0.00835527 0.0
8 33 185.64 154.413 2.88961 -0.00923197 0.00271186 0.0
8 34 185.965 155.181 2.92627 0.164479 -0.0119137 0.0
8 35 185.931 155.986 2.89958 -0.155487 0.0249358 0.0
8 36 185.896 156.782 2.91801 0.0925363 -0.00614634 0.0
8 37 185.973 157.584 2.89095 0.286034 0.0117911 0.0
8 38 185.925 158.381 2.86737 0.0978611 -0.00327722 0.0
8 39 185.882 159.179 2.8209 -0.0439635 -0.00532296 0.0
8 40 185.859 159.975 2.74936 -0.0969443 -0.0187554 0.0
8 41 185.755 160.765 2.65318 -0.124519 -0.0105594 0.0
8 42 185.718 161.556 2.53692 0.0108865 -0.019629 0.0
8 43 185.851 162.342 2.40156 0.396583 -0.0389995 0.0
8 44 185.82 163.13 2.26307 -0.0385605 -0.0283231 0.0
8 45 185.825 163.918 2.13266 -0.045353 -0.0443974 0.0
8 46 185.898 164.71 2.01394 -0.158975 -0.0343724 0.0
8 47 185.775 165.5 1.90415 0.225681 -0.0399742 0.0
8 48 185.697 166.287 1.81743 -0.0974269 -0.0357188 0.0
8 49 185.835 167.09 1.73371 -0.099368 -0.0357181 0.0
8 50 185.76 167.881 1.67664 -0.0518712 -0.039913 0.0
8 51 185.594 168.668 1.62437 -0.028508 -0.0292617 0.0
8 52 185.498 169.459 1.60199 -0.111105 -0.0474563 0.0
8 53 185.56 170.267 1.5761 0.156243 -0.0260334 0.0
8 54 185.307 171.047 1.58697 0.364729 0.0126562 0.0
8 55 185.418 171.859 1.58552 -0.282202 -0.0638509 0.0
8 56 185.253 172.645 1.61692 0.526611 0.0258223 0.0
8 57 185.171 173.439 1.63272 0.0711332 -0.00996025 0.0
8 58 185.051 174.232 1.67844 -0.136202 -0.0493661 0.0
8 59 185.234 175.037 1.7081 -0.0988688 0.000797053 0.0
8 60 185.142 175.828 1.75504 0.0364716 -0.0506191 0.0
9 1 172.736 138.777 1.29608 -0.266797 -0.0762059 0.0
9 2 172.171 139.345 1.33365 0.37109 0.392738 0.0
9 3 171.683 139.985 1.32651 -0.110093 0.0690798 0.0
9 4 171.238 140.642 1.37145 -0.0194722 0.104262 0.0
9 5 170.682 141.239 1.34602 -0.186149 0.00531785 0.0
9 6 170.385 141.996 1.39472 -0.117925 0.0475776 0.0
9 7 170.076 142.723 1.36122 0.152933 0.13795 0.0
9 8 169.684 143.435 1.41218 -0.0874336 0.0641809 0.0
9 9 169.552 144.236 1.37522 -0.0707631 0.0553564 0.0
9 10 169.326 144.997 1.4243 0.113086 0.108449 0.0
9 11 169.097 145.771 1.38354 -0.142473 0.0458235 0.0
9 12 169.055 146.574 1.43321 0.155156 0.101363 0.0
9 13 168.956 147.366 1.39041 0.402699 0.104721 0.0
9 14 168.869 148.162 1.43895 -0.0375066 0.0609303 0.0
9 15 168.776 148.956 1.39745 0.0984833 0.0733743 0.0
9 16 168.459 149.708 1.44091 -0.153574 0.0124461 0.0
9 17 168.506 150.533 1.40154 0.071133 0.0661532 0.0
9 18 168.152 151.275 1.44361 0.0621108 0.0431095 0.0
9 19 168.143 152.091 1.39932 0.180303 0.0823303 0.0
9 20 167.893 152.851 1.44343 -0.111083 0.00477234 0.0
9 21 167.747 153.642 1.39682 0.0349633 0.0426347 0.0
9 22 167.417 154.375 1.44383 -0.202741 -0.0386374 0.0
9 23 167.146 155.127 1.39595 -0.150145 -0.0388368 0.0
9 24 166.753 155.828 1.44184 -0.0668998 0.00411432 0.0
9 25 166.33 156.504 1.39293 0.0696874 0.0808606 0.0
9 26 165.922 157.195 1.44058 0.109398 0.0949864 0.0
9 27 165.352 157.77 1.39432 0.181781 0.15221 0.0
9 28 164.962 158.474 1.4382 -0.0713876 -0.0646841 0.0
9 29 164.352 159.019 1.39148 0.00300786 -0.00332871 0.0
9 30 164.004 159.754 1.43366 0.0363633 0.00263187 0.0
9 31 163.432 160.33 1.39071 0.0527708 0.00819527 0.0
9 32 163.042 161.032 1.43264 -0.12441 -0.127625 0.0
9 33 162.631 161.718 1.38832 0.0950947 0.00360591 0.0
9 34 162.181 162.38 1.4321 0.0230956 -0.0501354 0.0
9 35 161.757 163.061 1.38981 0.133006 0.00629607 0.0
9 36 161.218 163.659 1.4302 0.0693446 -0.0340169 0.0
9 37 160.746 164.303 1.38866 -0.0221159 -0.141294 0.0
9 38 160.264 164.945 1.43359 -0.0991763 -0.177529 0.0
9 39 159.814 165.604 1.39291 0.0725908 -0.0674749 0.0
9 40 159.367 166.274 1.44133 0.272828 0.0490017 0.0
9 41 159.103 167.038 1.39757 0.00451905 -0.0925247 0.0
9 42 158.792 167.77 1.44881 -0.0768605 -0.0898744 0.0
9 43 158.495 168.518 1.40986 0.0323698 -0.0566782 0.0
9 44 158.125 169.226 1.46282 -0.0918219 -0.0793724 0.0
9 45 157.797 169.96 1.42398 0.0837854 -0.00623206 0.0
9 46 157.561 170.724 1.4744 0.313931 0.0801501 0.0
9 47 157.513 171.538 1.44046 -0.00763064 -0.00477226 0.0
9 48 157.248 172.293 1.49248 -0.057216 0.00627837 0.0
9 49 157.029 173.065 1.46377 0.0789148 0.0301174 0.0
9 50 156.914 173.858 1.51942 0.176546 0.0475565 0.0
9 51 156.853 174.656 1.49444 0.148071 0.0328871 0.0
9 52 156.767 175.451 1.54913 -0.105099 -0.00171516 0.0
9 53 156.648 176.243 1.52885 -0.107979 -0.0144482 0.0
9 54 156.594 177.042 1.58553 0.0318698 -0.00463262 0.0
9 55 156.44 177.829 1.568 0.108707 -0.0112341 0.0
9 56 156.434 178.634 1.62612 0.312449 0.00109109 0.0
9 57 156.234 179.414 1.61798 -0.0754136 -0.0543849 0.0
9 58 156.117 180.204 1.67732 0.17199 -0.042039 0.0
9 59 156.156 181.012 1.68931 -0.0692949 -0.0625691 0.0
9 60 156.133 181.804 1.74209 -0.13842 -0.0552285 0.0
10 1 275.072 196.39 3.19982 -0.128862 0.0999275 0.0
10 2 274.367 196.771 3.17472 0.0953262 -0.0621241 0.0
10 3 273.596 197.011 3.19564 -0.142909 0.117377 0.0
10 4 272.951 197.516 3.16109 0.276638 0.442214 0.0
10 5 272.178 197.755 3.19707 -0.211014 -0.0819979 0.0
10 6 271.465 198.111 3.15646 0.0264559 -0.00869326 0.0
10 7 270.767 198.521 3.19639 -0.208316 -0.0910825 0.0
10 8 270.224 199.118 3.15609 0.0605664 0.149098 0.0
10 9 269.599 199.623 3.19848 -0.120298 -0.0165758 0.0
10 10 269.14 200.291 3.1497 -0.194218 -0.0465894 0.0
10 11 268.617 200.892 3.19839 -0.0413217 0.0169745 0.0
10 12 268.063 201.471 3.1468 -0.240381 -0.0904793 0.0
10 13 267.612 202.139 3.19925 -0.152395 -0.133203 0.0
10 14 267.073 202.728 3.14546 -0.118933 -0.0278887 0.0
10 15 266.474 203.263 3.1965 0.0467146 0.00502325 0.0
10 16 265.828 203.736 3.14335 0.0098543 0.0933626 0.0
10 17 265.196 204.22 3.19432 0.0876411 0.0983897 0.0
10 18 264.403 204.472 3.14444 -0.0524661 -0.153356 0.0
10 19 263.848 205.076 3.19553 -0.210719 -0.341377 0.0
10 20 263.192 205.521 3.14205 0.132439 -0.041695 0.0
10 21 262.65 206.136 3.19376 0.0156653 -0.15339 0.0
10 22 261.942 206.521 3.13626 -0.01343 -0.318099 0.0