# 12000000
#nworms:400
#np:160
1 1 236.363 294.922 0.0511685 -0.212011 -0.130493 0.0
1 2 237.137 295.111 0.0205652 0.142088 0.171111 0.0
1 3 237.87 295.443 0.0440346 -0.00102267 0.10335 0.0
1 4 238.69 295.499 0.00623346 0.0159866 0.11081 0.0
1 5 239.394 295.921 0.0521132 0.120494 0.230845 0.0
1 6 240.174 296.09 0.0125876 0.130393 0.0185726 0.0
1 7 240.956 296.261 0.0639374 0.216482 0.194442 0.0
1 8 241.754 296.338 0.0154736 0.364386 -0.470121 0.0
1 9 242.55 296.382 0.0683096 0.297221 -0.102317 0.0
1 10 243.34 296.541 0.0169895 0.265802 0.256485 0.0
1 11 244.147 296.34 0.069006 0.355714 -0.206587 0.0
1 12 244.937 296.641 0.0176523 0.30917 -0.475638 0.0
1 13 245.732 296.564 0.0689231 0.342459 0.004953 0.0
1 14 246.53 296.487 0.0171937 0.26653 -0.358658 0.0
1 15 247.312 296.302 0.0694765 0.233204 0.0598151 0.0
1 16 248.052 295.994 0.0135471 0.301072 -0.0415516 0.0
1 17 248.815 295.75 0.06995 0.215487 0.301743 0.0
1 18 249.611 295.64 0.0150884 0.204772 -0.426481 0.0
1 19 250.344 295.273 0.0640868 0.0143954 0.0211539 0.0
1 20 251.143 295.185 0.0143466 0.295513 0.126121 0.0
1 21 251.913 294.948 0.065509 -0.0336606 -0.310114 0.0
1 22 252.654 294.657 0.0120111 0.143157 0.0669493 0.0
1 23 253.351 294.247 0.0681367 0.487934 0.248166 0.0
1 24 254.098 293.972 0.0131028 -0.0684801 -0.14492 0.0
1 25 254.868 293.734 0.063647 0.383127 -0.078274 0.0
1 26 255.593 293.405 0.0121587 0.0142387 0.0225819 0.0
1 27 256.21 292.858 0.0653138 0.463887 0.127428 0.0
1 28 256.997 292.641 0.0119451 0.167809 -0.100802 0.0
1 29 257.693 292.258 0.0642405 -0.109073 -0.646227 0.0
1 30 258.454 291.975 0.00671507 0.264676 0.0507741 0.0
1 31 259.078 291.457 0.054224 0.205633 -0.00428401 0.0
1 32 259.727 291.001 0.00495722 0.291891 -0.171088 0.0
1 33 260.396 290.559 0.0599085 0.0600863 -0.24738 0.0
1 34 261.002 290.035 0.0114422 0.256674 -0.0741681 0.0
1 35 261.567 289.47 0.0637391 0.125729 -0.218576 0.0
1 36 262.226 289.007 0.00974843 -0.00356744 -0.152979 0.0
1 37 262.759 288.4 0.0618947 0.0761645 -0.0186492 0.0
1 38 263.349 287.868 0.010258 0.306246 0.0533096 0.0
1 39 264.077 287.486 0.0645153 0.0696946 0.00382556 0.0
1 40 264.636 286.917 0.0176156 -0.0549495 -0.224135 0.0
1 41 265.213 286.354 0.0596457 0.275948 0.170027 0.0
1 42 265.653 285.68 0.0112583 0.171019 0.0824176 0.0
1 43 266.181 285.076 0.0514836 0.046904 -0.0913476 0.0
1 44 266.823 284.583 0.0151799 -0.0244908 -0.0905806 0.0
1 45 267.436 284.079 0.0617303 0.443597 0.26689 0.0
1 46 267.844 283.346 0.0194834 0.331215 0.148364 0.0
1 47 268.597 282.984 0.0598188 0.326023 -0.0790058 0.0
1 48 269.059 282.303 0.0149524 0.171374 -0.149989 0.0
1 49 269.71 281.839 0.0524328 0.318001 -0.14935 0.0
1 50 270.313 281.307 0.00923923 0.187354 -0.305566 0.0
1 51 270.851 280.715 0.0535804 0.128165 -0.388721 0.0
1 52 271.198 279.973 0.0110736 0.205607 -0.261088 0.0
1 53 271.605 279.303 0.0549428 0.474891 -0.188273 0.0
1 54 272.078 278.642 0.0134235 -0.13559 -0.482725 0.0
1 55 272.385 277.904 0.0553815 0.297476 -0.14129 0.0
1 56 272.647 277.149 0.010067 0.0587658 -0.199096 0.0
1 57 273.042 276.446 0.0607702 0.0127596 -0.271807 0.0
1 58 273.298 275.69 0.0111886 0.355347 -0.0942047 0.0
1 59 273.549 274.931 0.0644542 -0.0949316 -0.27011 0.0
1 60 273.826 274.183 0.013223 0.198199 -0.212171 0.0
1 61 274.255 273.499 0.0663311 -0.154376 -0.263091 0.0
1 62 274.429 272.7 0.0132326 0.0400966 -0.250617 0.0
1 63 274.872 272.025 0.0657 0.290379 -0.223535 0.0
1 64 275.129 271.261 0.00900208 0.537505 -0.00219708 0.0
1 65 275.548 270.574 0.0642528 0.16486 -0.19749 0.0
1 66 275.829 269.821 0.00782095 0.348914 -0.19588 0.0
1 67 276.119 269.078 0.0677897 0.346286 -0.201158 0.0
1 68 276.198 268.26 0.0116555 -0.0028716 -0.242709 0.0
1 69 276.471 267.513 0.0680918 0.107675 -0.22067 0.0
1 70 276.905 266.821 0.0107516 0.183567 -0.157157 0.0
1 71 277.174 266.074 0.0680918 0.187014 -0.208062 0.0
1 72 277.361 265.286 0.0103319 -0.0986478 -0.344373 0.0
1 73 277.735 264.574 0.0692539 0.0664723 -0.171499 0.0
1 74 277.97 263.805 0.0137706 -0.386922 -0.361353 0.0
1 75 278.375 263.106 0.0711614 -0.0560013 -0.11204 0.0
1 76 278.636 262.349 0.0140896 0.165529 -0.165174 0.0
1 77 278.837 261.575 0.0698987 -0.00116889 -0.101347 0.0
1 78 279.166 260.839 0.0171977 -0.164458 -0.283536 0.0
1 79 279.292 260.041 0.0694829 -0.15183 -0.199746 0.0
1 80 279.74 259.343 0.010636 -0.323091 -0.299685 0.0
1 81 279.9 258.563 0.067509 -0.160417 -0.27989 0.0
1 82 280.021 257.762 0.00680696 0.0595021 -0.10792 0.0
1 83 280.02 256.964 0.0665354 0.0331143 -0.121983 0.0
1 84 280.136 256.163 0.00742088 0.356079 -0.216743 0.0
1 85 279.991 255.365 0.0633155 0.147599 -0.186183 0.0
1 86 279.851 254.583 0.00282282 0.243017 -0.286505 0.0
1 87 279.781 253.78 0.0622983 -0.239346 -0.161466 0.0
1 88 279.843 252.98 0.00711777 0.0886137 -0.309677 0.0
1 89 279.874 252.184 0.0628995 0.00484962 -0.273737 0.0
1 90 280.007 251.389 0.00484472 0.177009 -0.236449 0.0
1 91 279.958 250.588 0.0607773 0.217725 -0.302348 0.0
1 92 279.968 249.786 0.00322407 0.0171457 -0.178582 0.0
1 93 280.017 248.991 0.0620284 0.50971 -0.260659 0.0
1 94 280.044 248.184 0.0023585 -0.0757928 -0.155127 0.0
1 95 279.881 247.395 0.0593885 0.266322 -0.145476 0.0
1 96 279.64 246.633 0.00188311 -0.228817 -0.0839177 0.0
1 97 279.241 245.929 0.0632267 0.192016 -0.184173 0.0
1 98 279.154 245.11 0.00517502 -0.452629 0.0606182 0.0
1 99 278.688 244.428 0.0656935 0.43746 -0.197843 0.0
1 100 278.459 243.667 0.00264336 0.215133 -0.154609 0.0
1 101 278.296 242.875 0.059409 0.0183931 -0.175127 0.0
1 102 278.14 242.098 0.00169564 -0.00815875 -0.126543 0.0
1 103 277.855 241.333 0.0595648 -0.0372645 -0.26471 0.0
1 104 277.418 240.668 0.00428572 0.00341686 0.210653 0.0
1 105 277.133 239.898 0.0613328 -0.167335 -0.0812947 0.0
1 106 276.592 239.299 0.00469036 -0.107459 0.222242 0.0
1 107 276.039 238.726 0.0596277 -0.0975677 -0.110668 0.0
1 108 275.624 238.024 0.00349724 0.201608 -0.171105 0.0
1 109 275.055 237.466 0.0647182 0.102644 -0.0343362 0.0
1 110 274.486 236.894 0.0015963 -0.0461867 -0.00281965 0.0
1 111 273.784 236.502 0.0678043 0.155495 -0.229734 0.0
1 112 273.196 235.945 0.00119684 -0.165076 0.0625302 0.0
1 113 272.476 235.582 0.0660064 -0.0470483 -0.0982202 0.0
1 114 271.758 235.235 0.00172958 -0.17955 -0.0214516 0.0
1 115 271.035 234.891 0.0673879 -0.060896 -0.194857 0.0
1 116 270.379 234.417 0.0035515 0.17743 -0.493175 0.0
1 117 269.529 234.346 0.0682025 -0.153402 -0.125097 0.0
1 118 268.916 233.764 0.00566252 -0.0716173 -0.361008 0.0
1 119 268.146 233.537 0.0627915 -0.164746 -0.138802 0.0
1 120 267.391 233.267 0.00305122 -0.0952179 -0.506482 0.0
1 121 266.595 233.154 0.0645602 -0.199055 -0.216853 0.0
1 122 265.804 233.026 0.00358977 -0.148088 0.00880318 0.0
1 123 265.01 232.979 0.0648639 -0.0653185 -0.221691 0.0
1 124 264.211 232.893 0.00154215 -0.107651 -0.350534 0.0
1 125 263.413 232.899 0.0659611 -0.0906077 -0.0682697 0.0
1 126 262.619 233.024 0.000841248 -0.0630873 0.00354203 0.0
1 127 261.842 233.224 0.0645403 0.0781095 -0.385237 0.0
1 128 261.041 233.291 0.00116547 0.0844445 -0.00952336 0.0
1 129 260.252 233.375 0.0684628 0.0440307 0.132626 0.0
1 130 259.475 233.615 0.00129145 0.00311163 0.237942 0.0
1 131 258.67 233.612 0.0693882 0.00740664 0.207052 0.0
1 132 257.876 233.6 0.000904761 0.0183001 -0.0279636 0.0
1 133 257.07 233.612 0.0660791 -0.061623 0.146321 0.0
1 134 256.298 233.859 0.0 -0.0220969 0.19707 0.0
1 135 255.524 234.019 0.0622458 -0.0418687 0.462822 0.0
1 136 254.738 234.194 0.000179832 -0.290983 -0.413301 0.0
1 137 253.942 234.247 0.0611055 -0.0330016 -0.107048 0.0
1 138 253.14 234.314 0.00158536 -0.0886738 0.0568394 0.0
1 139 252.393 234.626 0.0607702 -0.253112 -0.396261 0.0
1 140 251.612 234.796 0.00388019 -0.0530245 0.193585 0.0
1 141 250.857 235.072 0.0589759 -0.0553351 -0.0325864 0.0
1 142 250.13 235.4 0.0030581 -0.0440518 0.147394 0.0
1 143 249.347 235.595 0.0594677 -0.202979 0.0087944 0.0
1 144 248.642 235.986 0.00346157 -0.148442 0.0759165 0.0
1 145 247.868 236.199 0.0636512 -0.245385 -0.106825 0.0
1 146 247.207 236.694 0.00939119 -0.0547584 0.0588066 0.0
1 147 246.442 236.921 0.063623 -0.152918 0.174461 0.0
1 148 245.669 237.143 0.00396707 -0.0299045 0.134319 0.0
1 149 244.875 237.228 0.061744 -0.0128322 0.334489 0.0
1 150 244.104 237.462 0.00493761 -0.0858125 -0.133176 0.0
1 151 243.352 237.723 0.0630031 -0.222058 -0.309194 0.0
1 152 242.581 237.944 0.00922906 -0.155935 -0.339351 0.0
1 153 241.792 238.086 0.0611809 0.0125486 0.20191 0.0
1 154 240.983 238.022 0.00988755 0.0252433 -0.212182 0.0
1 155 240.195 237.964 0.0574279 -0.102038 -0.00432447 0.0
1 156 239.428 237.643 0.0145886 -0.0231867 0.46708 0.0
1 157 238.622 237.683 0.0532316 0.000580589 0.0955049 0.0
1 158 237.833 237.514 0.0128645 0.191132 -0.0358619 0.0
1 159 237.027 237.56 0.0320633 0.094465 -0.211605 0.0
1 160 236.291 237.09 0.000567376 0.258073 0.160568 0.0
2 1 55.3084 198.05 2.34537 0.00542844 -0.0778733 0.0
2 2 54.751 197.482 2.3732 -0.0167107 -0.130832 0.0
2 3 54.2248 196.873 2.35326 -0.33977 -0.102193 0.0
2 4 53.9239 196.117 2.3902 0.0732944 -0.137941 0.0
2 5 53.467 195.459 2.34848 -0.18273 -0.207341 0.0
2 6 53.1208 194.737 2.38943 -0.247678 0.134108 0.0
2 7 52.7593 194.021 2.34167 0.152649 -0.188052 0.0
2 8 52.2321 193.414 2.38834 0.169716 -0.239725 0.0
2 9 51.7648 192.765 2.3417 -0.26483 -0.0165577 0.0
2 10 51.4371 192.025 2.3882 0.125089 -0.172743 0.0
2 11 50.9127 191.41 2.34246 0.236959 -0.0113403 0.0
2 12 50.5188 190.709 2.38739 0.239139 -0.250155 0.0
2 13 49.9948 190.1 2.34066 0.131272 -0.326577 0.0
2 14 49.477 189.492 2.38736 -0.0899817 -0.396264 0.0
2 15 48.9684 188.863 2.33903 -0.000168911 -0.0906459 0.0
2 16 48.6585 188.119 2.38632 -0.456534 -0.0517569 0.0
2 17 48.3578 187.376 2.33813 -0.446925 0.175977 0.0
2 18 48.2482 186.575 2.38972 0.252491 -0.229116 0.0
2 19 48.0543 185.804 2.33596 0.0933461 -0.0446874 0.0
2 20 47.8707 185.02 2.3976 -0.143141 -0.0777827 0.0
2 21 47.8637 184.215 2.33333 0.220102 -0.266466 0.0
2 22 47.7232 183.428 2.39194 0.150292 -0.104714 0.0
2 23 47.5355 182.646 2.32699 0.0245906 -0.0838672 0.0
2 24 47.225 181.911 2.38972 -0.337171 0.105638 0.0
2 25 46.8392 181.206 2.32863 -0.294061 0.0214273 0.0
2 26 46.6452 180.419 2.38809 0.319059 -0.490065 0.0
2 27 46.6675 179.614 2.32799 -0.399185 0.0491626 0.0
2 28 46.6356 178.815 2.38216 0.199215 -0.117498 0.0
2 29 46.6892 178.019 2.326 0.104667 -0.0318251 0.0
2 30 46.6028 177.214 2.38122 0.0936836 -0.114756 0.0
2 31 46.9294 176.436 2.32349 -0.0290366 -0.085037 0.0
2 32 46.9102 175.637 2.38333 0.320886 -0.219332 0.0
2 33 46.931 174.833 2.32302 0.136715 -0.209461 0.0
2 34 46.8445 174.038 2.38522 0.305684 -0.305377 0.0
2 35 46.7648 173.24 2.32103 -0.184741 0.0312537 0.0
2 36 46.432 172.485 2.37876 -0.0712347 0.100216 0.0
2 37 46.2948 171.706 2.31961 0.0471651 0.145481 0.0
2 38 46.1552 170.909 2.37393 -0.198239 0.157473 0.0
2 39 46.0259 170.125 2.31934 -0.0817148 0.00839174 0.0
2 40 45.9794 169.318 2.37253 -0.0922987 0.129622 0.0
2 41 45.8483 168.532 2.31857 -0.0479534 0.0849046 0.0
2 42 45.6718 167.749 2.36983 -0.0712506 0.000957849 0.0
2 43 45.5473 166.961 2.31653 -0.148704 0.0545216 0.0
2 44 45.4809 166.162 2.37035 0.169732 0.145206 0.0
2 45 45.3442 165.369 2.31385 0.0866533 0.135562 0.0
2 46 45.5163 164.573 2.36619 -0.26268 0.00697379 0.0
2 47 45.4731 163.768 2.30808 0.0758269 0.0676483 0.0
2 48 45.6639 162.986 2.36766 0.261758 0.12102 0.0
2 49 45.9117 162.225 2.31208 -0.367661 -0.0999195 0.0
2 50 46.0561 161.436 2.37141 -0.134156 0.210777 0.0
2 51 45.9173 160.626 2.31949 0.227728 -0.087956 0.0
2 52 46.3011 159.855 2.37594 0.142376 0.0983387 0.0
2 53 46.171 159.047 2.32201 0.149593 -0.0322073 0.0
2 54 46.2179 158.249 2.37751 -0.0046497 0.199055 0.0
2 55 46.1887 157.451 2.32054 -0.263507 -0.0990928 0.0
2 56 46.1749 156.65 2.37629 -0.298067 -0.0989012 0.0
2 57 46.2438 155.847 2.3149 -0.148897 -0.0433889 0.0
2 58 46.3298 155.05 2.37499 -0.246147 0.120403 0.0
2 59 46.3118 154.245 2.31403 0.279964 -0.067193 0.0
2 60 46.3938 153.45 2.37343 -0.311941 -0.00966948 0.0
2 61 46.2704 152.635 2.31897 0.458173 0.10006 0.0
2 62 46.5018 151.85 2.3738 0.420717 0.0446181 0.0
2 63 46.5141 151.054 2.32325 0.456837 -0.0371969 0.0
2 64 46.5035 150.245 2.37745 -0.457507 0.159828 0.0
2 65 46.568 149.447 2.32407 -0.049294 0.000857682 0.0
2 66 46.6366 148.647 2.38014 -0.124975 -0.0325283 0.0
2 67 46.5723 147.846 2.32147 -0.227657 -0.143225 0.0
2 68 46.4175 147.06 2.38032 -0.143479 -0.153333 0.0
2 69 46.2693 146.275 2.31936 -0.36276 0.0461605 0.0
2 70 45.9925 145.524 2.38516 0.204067 -0.18621 0.0
2 71 45.8492 144.735 2.32388 -0.0744772 -0.0370458 0.0
2 72 45.8115 143.932 2.38703 -0.238104 -0.0253604 0.0
2 73 45.8201 143.134 2.32467 -0.150346 -0.151447 0.0
2 74 45.9482 142.341 2.38835 0.0830628 -0.0749968 0.0
2 75 46.1165 141.565 2.32561 0.159014 -0.026672 0.0
2 76 46.1154 140.75 2.38282 0.0768647 0.0177961 0.0
2 77 46.4257 139.998 2.32835 -0.223024 -0.112892 0.0
2 78 46.4432 139.189 2.38008 0.37772 -0.0554759 0.0
2 79 46.737 138.43 2.33061 -0.191078 0.0655224 0.0
2 80 46.8603 137.643 2.37682 0.335059 -0.0559133 0.0
2 81 47.0058 136.855 2.32862 -0.00257592 -0.129008 0.0
2 82 47.4024 136.136 2.37599 0.103513 0.026754 0.0
2 83 47.5428 135.349 2.32985 -0.230009 -0.20111 0.0
2 84 47.6015 134.546 2.37884 0.184989 -0.0680998 0.0
2 85 47.9521 133.806 2.33176 -0.358382 -0.413196 0.0
2 86 48.1336 133.035 2.38012 0.387549 0.0753371 0.0
2 87 48.3574 132.26 2.32829 -0.375593 -0.218788 0.0
2 88 48.4973 131.475 2.37924 0.231187 0.0691636 0.0
2 89 48.6376 130.681 2.32923 -0.263541 -0.179096 0.0
2 90 48.7226 129.891 2.38236 0.367701 0.0884718 0.0
2 91 48.7562 129.081 2.32689 0.108034 0.156445 0.0
2 92 48.9589 128.308 2.37977 0.354497 -0.179584 0.0
2 93 49.2945 127.572 2.3334 0.398343 0.0742171 0.0
2 94 49.5898 126.83 2.38268 -0.0175112 -0.0772963 0.0
2 95 49.9942 126.132 2.33157 -0.339868 -0.443433 0.0
2 96 50.574 125.561 2.38604 0.106266 -0.0777171 0.0
2 97 50.8836 124.802 2.33096 0.0516903 -0.161501 0.0
2 98 51.3787 124.18 2.38573 -0.212545 -0.199011 0.0
2 99 51.7934 123.485 2.32773 0.0924301 -0.146603 0.0
2 100 52.2765 122.851 2.38004 0.145888 0.194113 0.0
2 101 52.9178 122.353 2.32492 -0.0141078 -0.228669 0.0
2 102 53.2185 121.567 2.38543 -0.178027 -0.0658717 0.0
2 103 53.9389 121.123 2.32607 0.000136202 0.0582009 0.0
2 104 54.3226 120.413 2.38872 -0.318134 -0.0550745 0.0
2 105 54.8168 119.792 2.32295 -0.352585 -0.131409 0.0
2 106 55.2783 119.133 2.38174 -0.186745 -0.16425 0.0
2 107 55.6253 118.413 2.32139 0.230819 -0.0163663 0.0
2 108 55.9124 117.662 2.37919 0.280724 0.261377 0.0
2 109 56.2258 116.927 2.32747 -0.12071 -0.107275 0.0
2 110 56.6816 116.258 2.38308 0.285777 0.161699 0.0
2 111 57.0468 115.551 2.32561 -0.0339944 -0.0871772 0.0
2 112 57.5301 114.899 2.38664 -0.0426089 -0.112096 0.0
2 113 57.7807 114.123 2.33032 -0.0681462 0.0859036 0.0
2 114 58.0049 113.366 2.38443 0.353455 -0.129071 0.0
2 115 58.3685 112.637 2.32493 -0.148785 0.0568319 0.0
2 116 58.3897 111.815 2.38179 0.139204 -0.0671159 0.0
2 117 58.6343 111.057 2.32708 0.0217141 -0.0805983 0.0
2 118 58.9186 110.305 2.38618 0.0191532 -0.0956273 0.0
2 119 59.1949 109.556 2.32617 -0.0841619 0.0592721 0.0
2 120 59.4777 108.805 2.3844 0.0678245 -0.177073 0.0
2 121 59.6787 108.033 2.3288 -0.375957 -0.185969 0.0
2 122 59.6398 107.207 2.38652 -0.42253 -0.00260552 0.0
2 123 59.8796 106.44 2.33649 0.67282 0.0731832 0.0
2 124 60.3187 105.749 2.39084 0.0822981 0.24614 0.0
2 125 60.4564 104.951 2.33278 -0.105762 0.0827704 0.0
2 126 60.7527 104.209 2.3886 0.114662 0.0936662 0.0
2 127 61.0701 103.47 2.33327 0.021042 0.00601478 0.0
2 128 61.2029 102.673 2.39113 0.21871 0.096909 0.0
2 129 61.4661 101.919 2.33501 0.0501305 0.0110539 0.0
2 130 61.8043 101.191 2.38821 -0.439036 -0.157711 0.0
2 131 62.0763 100.441 2.33355 -0.0958195 -0.118798 0.0
2 132 62.3876 99.7011 2.39048 0.261224 0.105213 0.0
2 133 62.7139 98.9723 2.33803 0.0352049 -0.182668 0.0
2 134 63.114 98.2742 2.38643 -0.143624 -0.196092 0.0
2 135 63.5294 97.5928 2.33947 -0.412483 -0.0816856 0.0
2 136 63.8548 96.8568 2.38785 0.221185 -0.0490084 0.0
2 137 64.2952 96.1794 2.33668 -0.132811 -0.339238 0.0
2 138 64.8955 95.6395 2.38856 0.16326 -0.0538168 0.0
2 139 65.3421 94.961 2.33439 0.0676499 -0.0402155 0.0
2 140 65.9317 94.4176 2.38836 -0.0113832 -0.0613806 0.0
2 141 66.5748 93.9328 2.33594 0.0962393 -0.0312665 0.0
2 142 67.1956 93.4401 2.38737 -0.00930265 -0.136493 0.0
2 143 67.8487 92.9637 2.33713 -0.0796885 -0.4002 0.0
2 144 68.3825 92.3643 2.39106 0.184616 0.419283 0.0
2 145 69.0564 91.9086 2.33202 0.374284 0.130883 0.0
2 146 69.5428 91.2663 2.38993 -0.0162764 -0.124816 0.0
2 147 69.9882 90.6019 2.33139 -0.132562 -0.0288971 0.0
2 148 70.3185 89.862 2.39024 -0.472301 -0.00797355 0.0
2 149 70.648 89.1424 2.33036 0.0443999 -0.164057 0.0
2 150 71.0593 88.445 2.39647 0.182774 0.0423324 0.0
2 151 71.2711 87.6666 2.33432 0.0263081 -0.0416232 0.0
2 152 71.5648 86.921 2.397 -0.174254 0.0589161 0.0
2 153 72.0152 86.2481 2.33913 0.585956 0.210997 0.0
2 154 72.3266 85.5118 2.39747 -9.62958e-05 0.105456 0.0
2 155 72.6035 84.7602 2.3445 0.092732 -0.0713469 0.0
2 156 72.8486 83.9969 2.3968 -0.0591602 0.00445728 0.0
2 157 73.3597 83.35 2.3528 0.64366 0.159059 0.0
2 158 73.6418 82.6051 2.39667 -0.105448 0.117333 0.0
2 159 73.8442 81.8222 2.37105 -0.179663 -0.0594177 0.0
2 160 74.2574 81.1242 2.39993 0.41415 0.0668694 0.0
3 1 173.091 129.362 1.227 -0.510841 0.0324294 0.0
3 2 172.705 128.655 1.19883 -0.567465 0.144373 0.0
3 3 172.118 128.096 1.22132 -0.251702 -0.23317 0.0
3 4 171.665 127.438 1.18097 -0.0857898 -0.439603 0.0
3 5 171.059 126.898 1.22426 -0.0608823 -0.245305 0.0
3 6 170.61 126.231 1.17606 -0.229845 -0.0496246 0.0
3 7 170.09 125.628 1.23326 -0.174182 -0.135262 0.0
3 8 169.611 124.981 1.17138 -0.277884 -0.0319675 0.0
3 9 169.057 124.405 1.23086 0.00579654 -0.256825 0.0
3 10 168.588 123.755 1.17211 -0.0368342 -0.175278 0.0
3 11 168.035 123.174 1.2304 -0.111598 -0.0909406 0.0
3 12 167.544 122.544 1.17783 0.0195008 -0.175414 0.0
3 13 166.996 121.959 1.23247 -0.247796 -0.0648392 0.0
3 14 166.443 121.385 1.17676 -0.138733 -0.129786 0.0
3 15 165.948 120.749 1.23259 -0.148021 -0.250437 0.0
3 16 165.359 120.209 1.17491 0.0987472 -0.195846 0.0
3 17 164.868 119.568 1.23306 -0.0870647 -0.301367 0.0
3 18 164.444 118.89 1.17286 0.0139393 -0.101156 0.0
3 19 164.284 118.079 1.22497 -0.169596 -0.0772349 0.0
3 20 163.728 117.459 1.17371 -0.494574 0.0438492 0.0
3 21 163.569 116.654 1.22424 -0.0393675 -0.0666824 0.0
3 22 163.229 115.937 1.17637 0.0276154 -0.178291 0.0
3 23 162.864 115.216 1.23059 0.00260117 0.00208766 0.0
3 24 162.28 114.647 1.17829 -0.410037 0.190652 0.0
3 25 161.863 113.967 1.22615 -0.200685 0.0608412 0.0
3 26 161.407 113.311 1.17929 -0.325973 0.122864 0.0
3 27 160.731 112.832 1.22759 0.143417 -0.404606 0.0
3 28 160.434 112.042 1.18037 -0.121621 0.0204603 0.0
3 29 159.787 111.547 1.22403 0.00672766 -0.366052 0.0
3 30 159.381 110.835 1.18015 -0.0488976 -0.0970319 0.0
3 31 158.722 110.356 1.23161 0.16668 -0.317729 0.0
3 32 158.213 109.732 1.18511 -0.0136957 -0.101328 0.0
3 33 157.575 109.238 1.23017 0.501877 -0.399431 0.0
3 34 157.009 108.675 1.18134 -0.287676 -0.187768 0.0
3 35 156.497 108.052 1.2298 0.0219997 -0.145934 0.0
3 36 155.966 107.454 1.17809 -0.249526 -0.22748 0.0
3 37 155.306 106.981 1.22733 0.0411043 -0.341306 0.0
3 38 154.864 106.289 1.17967 -0.119992 -0.316515 0.0
3 39 154.25 105.775 1.2293 -0.444579 -0.0943397 0.0
3 40 153.661 105.234 1.17876 -0.303608 -0.153118 0.0
3 41 153.11 104.643 1.22721 -0.273376 0.167496 0.0
3 42 152.411 104.232 1.17836 -0.290766 -0.0725996 0.0
3 43 151.72 103.843 1.2242 0.0891318 -0.459028 0.0
3 44 151.214 103.166 1.17905 -0.088383 -0.0446444 0.0
3 45 150.445 102.878 1.22785 0.0549675 -0.265191 0.0
3 46 149.785 102.439 1.17945 -0.109504 -0.014912 0.0
3 47 149.123 101.975 1.23079 -0.011567 0.124083 0.0
3 48 148.273 101.897 1.17516 -0.0565649 0.00358513 0.0
3 49 147.605 101.458 1.22855 0.1908 -0.203309 0.0
3 50 146.971 100.954 1.17741 0.185188 -0.131703 0.0
3 51 146.178 100.741 1.23118 -0.0765284 -0.105394 0.0
3 52 145.477 100.376 1.17734 0.166165 -0.289577 0.0
3 53 144.806 99.9197 1.2354 0.128435 -0.623763 0.0
3 54 144.056 99.6404 1.17889 -0.0157052 -0.0148438 0.0
3 55 143.321 99.323 1.23183 -0.053572 -0.433107 0.0
3 56 142.524 99.1985 1.17363 -0.334133 -0.00200118 0.0
3 57 141.741 99.0502 1.22966 -0.192487 -0.111346 0.0
3 58 141.058 98.5575 1.17448 -0.217498 -0.247072 0.0
3 59 140.199 98.6082 1.23133 -0.252871 -0.180636 0.0
3 60 139.491 98.2341 1.17576 -0.217654 -0.2948 0.0
3 61 138.746 97.9263 1.23075 0.036051 -0.451668 0.0
3 62 137.987 97.6927 1.17689 -0.34557 0.00662835 0.0
3 63 137.344 97.1564 1.2293 -0.0471941 -0.40019 0.0
3 64 136.502 97.0943 1.17853 -0.357565 0.188956 0.0
3 65 135.83 96.6446 1.23397 0.0482666 -0.274022 0.0
3 66 135.081 96.3564 1.17959 -0.163036 -0.292623 0.0
3 67 134.328 96.101 1.23163 -0.00726795 -0.14819 0.0
3 68 133.569 95.8322 1.17982 0.0210816 -0.621849 0.0
3 69 132.785 95.6905 1.23423 0.130142 -0.245553 0.0
3 70 132.011 95.4749 1.1821 -0.0919862 -0.270231 0.0
3 71 131.215 95.4021 1.23424 -0.0670153 -0.384288 0.0
3 72 130.417 95.3612 1.17909 0.0537662 -0.215547 0.0
3 73 129.629 95.1959 1.22881 -0.0767801 -0.18737 0.0
3 74 128.821 95.2459 1.1735 -0.163608 -0.0996434 0.0
3 75 128.027 95.1584 1.23317 -0.137939 0.446704 0.0
3 76 127.248 94.9286 1.17081 -0.0388919 0.138972 0.0
3 77 126.444 94.9064 1.23357 0.071933 -0.262764 0.0
3 78 125.645 94.9845 1.17219 -0.0337921 0.101919 0.0
3 79 124.842 94.8721 1.23473 -0.0115686 0.241725 0.0
3 80 124.052 94.8247 1.17363 -0.100004 -0.0824053 0.0
3 81 123.238 94.8533 1.23591 0.123919 -0.238371 0.0
3 82 122.45 94.7803 1.17285 -0.201245 0.65618 0.0
3 83 121.662 94.5597 1.237 0.0359597 0.182253 0.0
3 84 120.867 94.56 1.17162 -0.233116 -0.0415754 0.0
3 85 120.06 94.6687 1.23511 -0.00126901 0.141567 0.0
3 86 119.269 94.4921 1.17255 -0.0983928 0.079443 0.0
3 87 118.484 94.3626 1.23629 0.00405389 0.107276 0.0
3 88 117.786 93.8921 1.17161 -0.0752646 -0.00567711 0.0
3 89 116.984 93.7965 1.23523 -0.103769 -0.028628 0.0
3 90 116.214 93.588 1.17155 0.0417175 0.336666 0.0
3 91 115.407 93.5158 1.23629 -0.207651 0.0550421 0.0
3 92 114.675 93.1534 1.16995 -0.0614254 -0.0213043 0.0
3 93 113.881 93.0252 1.2333 -0.0135447 -0.105747 0.0
3 94 113.112 92.81 1.16684 0.176779 -0.373158 0.0
3 95 112.31 92.7338 1.2332 -0.0467284 0.141278 0.0
3 96 111.513 92.7636 1.16587 0.0817093 0.0113434 0.0
3 97 110.718 92.8966 1.22809 -0.00665847 -0.214499 0.0
3 98 109.963 93.1685 1.16796 -0.14803 -0.309499 0.0
3 99 109.223 93.4711 1.23087 0.0797839 -0.0663406 0.0
3 100 108.426 93.6017 1.17362 0.0821619 -0.0404816 0.0
3 101 107.686 93.9287 1.23062 0.0685902 -0.0290326 0.0
3 102 106.878 93.9912 1.16926 0.0592874 0.126882 0.0
3 103 106.131 94.324 1.228 0.072452 0.0573741 0.0
3 104 105.309 94.3086 1.16818 -0.0204221 -0.269598 0.0
3 105 104.538 94.5102 1.22581 -0.148873 0.400261 0.0
3 106 103.79 94.8338 1.16761 -0.066921 -0.200212 0.0
3 107 103.134 95.3004 1.22116 -0.393398 -0.188964 0.0
3 108 102.598 95.9056 1.17314 0.00909322 -0.181538 0.0
3 109 101.961 96.3983 1.21591 -0.168387 0.116571 0.0
3 110 101.625 97.1764 1.18699 0.149164 -0.0864498 0.0
3 111 101.109 97.7594 1.20708 -0.162939 0.15609 0.0
3 112 100.48 98.2983 1.20175 0.259294 0.0213177 0.0
3 113 100.071 98.9808 1.1974 -0.399644 -0.225407 0.0
3 114 99.7086 99.7023 1.21609 -0.0740655 -0.0480513 0.0
3 115 99.4514 100.455 1.18624 -0.000732778 -0.178563 0.0
3 116 99.0341 101.155 1.22247 0.0391718 -0.0174928 0.0
3 117 98.9151 101.959 1.17956 0.0533901 -0.181454 0.0
3 118 98.5701 102.69 1.22544 0.000715545 -0.185126 0.0
3 119 98.5967 103.525 1.17198 -0.0796232 -0.200341 0.0
3 120 98.2384 104.257 1.22678 -0.0241438 -0.128557 0.0
3 121 98.0488 105.03 1.17135 -0.394775 -0.186415 0.0
3 122 97.8782 105.817 1.22908 0.28892 0.0734101 0.0
3 123 97.7695 106.608 1.17167 0.125514 -0.0606355 0.0
3 124 97.6433 107.401 1.22769 -0.277064 -0.156837 0.0
3 125 97.5713 108.199 1.16981 0.22056 0.0957808 0.0
3 126 97.2863 108.958 1.23041 0.139382 -0.108479 0.0
3 127 96.9831 109.696 1.1719 -0.0899935 -0.168834 0.0
3 128 96.4887 110.342 1.23302 0.320191 -0.094054 0.0
3 129 96.1487 111.066 1.1721 0.400048 0.0157894 0.0
3 130 95.7875 111.776 1.23592 0.144117 -0.0620442 0.0
3 131 95.4528 112.506 1.17302 -0.0844028 -0.181097 0.0
3 132 94.9502 113.14 1.23412 -0.108897 -0.0814316 0.0
3 133 94.5817 113.851 1.16999 -0.00918044 0.0650977 0.0
3 134 94.5275 114.686 1.23135 -0.0700229 -0.170388 0.0
3 135 94.2082 115.416 1.16881 -0.051738 -0.11335 0.0
3 136 93.7316 116.073 1.22594 -0.0752513 -0.116936 0.0
3 137 93.4582 116.831 1.17254 -0.0177089 -0.171447 0.0
3 138 93.0278 117.506 1.2277 -0.00422906 -0.0914877 0.0
3 139 92.7698 118.275 1.18087 0.0379901 -0.114093 0.0
3 140 92.3674 118.97 1.23951 -0.203216 -0.123899 0.0
3 141 91.8618 119.592 1.19688 0.433534 0.174687 0.0
3 142 91.327 120.193 1.24103 -0.242709 -0.256395 0.0
3 143 90.923 120.894 1.19172 0.0978769 -0.0931092 0.0
3 144 90.7008 121.67 1.23597 -0.197967 -0.318993 0.0
3 145 90.4878 122.434 1.18244 0.270115 0.0215026 0.0
3 146 90.2787 123.216 1.23607 0.112557 -0.216019 0.0
3 147 90.2523 124.021 1.18554 -0.10442 -0.0669639 0.0
3 148 90.3625 124.816 1.24306 0.0162419 0.000474327 0.0
3 149 90.5853 125.588 1.18962 0.143103 -0.260248 0.0
3 150 90.6742 126.383 1.24423 -0.121074 0.167016 0.0
3 151 90.7384 127.181 1.1932 0.0795074 -0.138543 0.0
3 152 91.041 127.941 1.24134 -0.163566 -0.0493336 0.0
3 153 90.9759 128.76 1.20001 0.0847481 -0.086581 0.0
3 154 91.3099 129.52 1.24051 -0.404283 -0.0925362 0.0
3 155 91.2823 130.329 1.21284 -0.0151412 -0.0593018 0.0
3 156 91.3383 131.121 1.23952 -0.408549 -0.190645 0.0
3 157 91.3228 131.926 1.21352 -0.231061 -0.0422804 0.0
3 158 91.4058 132.718 1.22703 0.121223 -0.118344 0.0
3 159 91.2056 133.524 1.21036 0.350203 0.015867 0.0
3 160 91.4164 134.318 1.21775 0.356104 -0.182569 0.0
4 1 201.426 274.119 1.17586 -0.00233218 -0.342456 0.0
4 2 202.233 274.147 1.16456 -0.011701 0.0871606 0.0
4 3 203.005 274.373 1.19407 -0.0203035 -0.0660296 0.0
4 4 203.8 274.476 1.16498 0.0227504 -0.121585 0.0
4 5 204.598 274.506 1.21425 0.0276328 -0.151875 0.0
4 6 205.399 274.544 1.16668 0.00418299 -0.0193132 0.0
4 7 206.187 274.682 1.22446 0.120361 -0.519116 0.0
4 8 206.922 275.038 1.16708 0.140632 -0.477657 0.0
4 9 207.726 275.118 1.22961 0.165777 -0.484457 0.0
4 10 208.49 275.348 1.1642 0.0143218 0.123109 0.0
4 11 209.264 275.556 1.23177 0.0917738 -0.0796665 0.0
4 12 209.965 275.967 1.16237 0.18078 -0.257021 0.0
4 13 210.729 276.2 1.23247 0.169911 -0.189678 0.0
4 14 211.5 276.412 1.1617 0.0127867 0.387833 0.0
4 15 212.26 276.664 1.2332 0.127482 0.0247083 0.0
4 16 213.054 276.784 1.16511 0.171286 -0.194198 0.0
4 17 213.829 276.978 1.23282 0.154287 -0.0385952 0.0
4 18 214.609 277.152 1.15931 0.246474 -0.52141 0.0
4 19 215.395 277.303 1.22984 0.152832 -0.0143764 0.0
4 20 216.191 277.393 1.16339 0.180223 -0.154173 0.0
4 21 216.995 277.319 1.22998 0.147817 -0.229788 0.0
4 22 217.792 277.371 1.1666 0.165295 -0.432091 0.0
4 23 218.585 277.483 1.22712 0.0981859 -0.0791798 0.0
4 24 219.371 277.631 1.16551 0.150396 -0.467643 0.0
4 25 220.129 277.898 1.23022 0.113631 -0.292521 0.0
4 26 220.867 278.198 1.16508 -5.33893e-05 -0.122518 0.0
4 27 221.6 278.529 1.23142 0.0632422 -0.248999 0.0
4 28 222.268 278.966 1.16849 0.121884 -0.393283 0.0
4 29 222.937 279.412 1.23342 -0.0449666 -0.101016 0.0
4 30 223.701 279.673 1.16977 -0.0361737 -0.100078 0.0
4 31 224.427 280.001 1.23348 -0.0623011 -0.0461249 0.0
4 32 225.224 280.154 1.1646 0.0383037 -0.314615 0.0
4 33 225.921 280.575 1.23162 0.100563 -0.432546 0.0
4 34 226.692 280.788 1.16483 0.142472 -0.524794 0.0
4 35 227.48 280.938 1.22774 0.0492716 -0.140507 0.0
4 36 228.274 281.025 1.16586 0.0894226 -0.0401696 0.0
4 37 229.038 281.306 1.23211 0.119283 -0.320072 0.0
4 38 229.837 281.364 1.16325 0.124978 -0.102276 0.0
4 39 230.636 281.397 1.23097 0.127309 -0.0208358 0.0
4 40 231.434 281.443 1.16023 0.134775 0.165751 0.0
4 41 232.231 281.519 1.2291 0.147651 0.0163076 0.0
4 42 233.027 281.589 1.16445 0.12508 0.325364 0.0
4 43 233.822 281.677 1.22929 0.199523 -0.332736 0.0
4 44 234.623 281.7 1.16758 0.136497 0.114533 0.0
4 45 235.417 281.82 1.23257 0.198769 -0.185955 0.0
4 46 236.189 282.035 1.16768 0.124002 0.120629 0.0
4 47 236.939 282.315 1.23242 0.0900032 0.176373 0.0
4 48 237.704 282.551 1.16539 0.113712 0.12571 0.0
4 49 238.509 282.624 1.23073 0.140544 -0.0399421 0.0
4 50 239.262 282.923 1.16519 0.15341 -0.0254925 0.0
4 51 240.058 283.015 1.23362 0.0699295 0.252542 0.0
4 52 240.813 283.327 1.1682 0.107257 0.173003 0.0
4 53 241.628 283.315 1.23296 0.128693 -0.0204101 0.0
4 54 242.41 283.464 1.16695 0.122402 0.0287162 0.0
4 55 243.214 283.518 1.22867 0.18191 -0.328517 0.0
4 56 244.003 283.659 1.16552 0.130898 -0.00210726 0.0
4 57 244.74 284.006 1.22975 0.190772 -0.281602 0.0
4 58 245.508 284.206 1.16938 0.137631 0.00103021 0.0
4 59 246.286 284.426 1.22613 0.169738 -0.114812 0.0
4 60 247.096 284.418 1.16428 0.125084 0.17669 0.0
4 61 247.892 284.44 1.20904 0.191471 -0.387764 0.0
4 62 248.65 284.807 1.14937 0.0944859 0.335286 0.0
4 63 249.478 284.661 1.17516 0.135392 -0.00476658 0.0
4 64 250.244 284.947 1.13267 0.112322 0.0697322 0.0
4 65 251.052 284.951 1.14976 0.142734 -0.123603 0.0
4 66 251.833 285.14 1.16642 0.109938 0.0706956 0.0
4 67 252.628 285.217 1.24327 0.0109023 0.512813 0.0
4 68 253.376 285.523 1.35963 0.0177791 0.420218 0.0
4 69 254.156 285.575 1.55471 0.0827623 0.148742 0.0
4 70 254.9 285.767 1.78705 0.130987 -0.39934 0.0
4 71 255.669 285.773 2.0305 0.0923796 0.0179624 0.0
4 72 256.442 285.855 2.2083 0.0732674 -0.0509743 0.0
4 73 257.234 285.913 2.33166 0.0902492 0.286409 0.0
4 74 258.033 285.849 2.39246 0.0461438 -0.279718 0.0
4 75 258.809 285.637 2.4 0.0658366 0.0169399 0.0
4 76 259.594 285.49 2.39973 0.0907242 0.0372395 0.0
4 77 260.4 285.484 2.4 0.0762957 -0.00235552 0.0
4 78 261.193 285.472 2.37254 0.0932796 0.0967948 0.0
4 79 262.001 285.473 2.39861 0.0745815 -0.145524 0.0
4 80 262.784 285.316 2.35551 0.072323 -0.213262 0.0
4 81 263.55 285.065 2.3982 0.140243 0.158585 0.0