# 5784000
#nworms:900
#np:60
1 1 139.091 226.57 2.7779 0.0634444 0.0605346 0.0
1 2 139.558 227.249 2.74828 0.0889659 -0.0556427 0.0
1 3 140.214 227.709 2.73264 0.0540845 0.0366888 0.0
1 4 140.824 228.227 2.68344 -0.0510333 0.109988 0.0
1 5 141.428 228.753 2.69476 -0.132766 0.201196 0.0
1 6 142.011 229.299 2.65012 -0.0209496 0.0435981 0.0
1 7 142.626 229.815 2.67693 -0.160564 0.174668 0.0
1 8 143.199 230.372 2.63078 -0.0634962 0.04007 0.0
1 9 143.686 231.016 2.66568 0.00155589 -0.0225139 0.0
1 10 144.28 231.553 2.61702 0.0365132 -0.0968421 0.0
1 11 144.917 232.04 2.65346 0.0492111 -0.136643 0.0
1 12 145.599 232.46 2.60034 -0.0647249 -0.00795588 0.0
1 13 146.262 232.908 2.63477 -0.177219 0.16348 0.0
1 14 146.928 233.351 2.58602 -0.0656187 -0.0493716 0.0
1 15 147.721 233.565 2.61493 -0.230185 0.240218 0.0
1 16 148.384 234.013 2.5624 -0.056823 -0.0883636 0.0
1 17 149.093 234.388 2.58769 -0.193757 0.163352 0.0
1 18 149.789 234.775 2.5332 -0.134757 0.0614498 0.0
1 19 150.383 235.335 2.5606 -0.215689 0.189393 0.0
1 20 151.183 235.557 2.51204 -0.0946276 0.0208877 0.0
1 21 151.787 236.101 2.54288 -0.0445013 -0.110105 0.0
1 22 152.503 236.458 2.494 -0.234658 0.27892 0.0
1 23 153.222 236.81 2.53173 -0.0983687 0.0242062 0.0
1 24 153.975 237.086 2.48433 -0.0377122 -0.0799749 0.0
1 25 154.679 237.467 2.52026 -0.216454 0.311097 0.0
1 26 155.373 237.864 2.47233 0.0193413 -0.120643 0.0
1 27 156.044 238.301 2.50475 -0.0429106 0.0536439 0.0
1 28 156.763 238.661 2.46332 -0.0784815 0.0987501 0.0
1 29 157.536 238.881 2.50162 -0.126226 0.329292 0.0
1 30 158.308 239.081 2.46136 -0.0624692 0.105404 0.0
1 31 159.08 239.3 2.49368 -0.0223108 0.031833 0.0
1 32 159.828 239.584 2.45796 -0.0561844 0.125374 0.0
1 33 160.549 239.936 2.49122 -0.0183933 0.0555653 0.0
1 34 161.269 240.28 2.45854 0.0834563 -0.158478 0.0
1 35 162.053 240.484 2.49276 -0.0510718 0.155603 0.0
1 36 162.714 240.968 2.46447 0.0373116 -0.0669126 0.0
1 37 163.481 241.205 2.49662 -0.0387555 0.127583 0.0
1 38 164.207 241.543 2.46644 -0.0590397 0.156607 0.0
1 39 164.914 241.915 2.49835 -0.190269 0.419307 0.0
1 40 165.643 242.25 2.46793 -0.0748733 0.154316 0.0
1 41 166.306 242.699 2.49869 0.0353719 0.00512959 0.0
1 42 166.998 243.106 2.46901 -0.114986 0.194963 0.0
1 43 167.568 243.678 2.49471 -0.0424366 0.0977576 0.0
1 44 168.228 244.13 2.4616 0.0486146 -0.0255226 0.0
1 45 168.806 244.687 2.48762 0.176631 -0.179506 0.0
1 46 169.454 245.158 2.45029 0.0451589 -0.0352962 0.0
1 47 169.978 245.772 2.46508 -0.0656645 0.0708955 0.0
1 48 170.638 246.232 2.41888 -0.00750178 0.0118574 0.0
1 49 171.11 246.898 2.40412 -0.0129671 0.00185746 0.0
1 50 171.732 247.397 2.3336 -0.0489261 0.0371426 0.0
1 51 172.39 247.849 2.2848 -0.0342251 0.0165348 0.0
1 52 173.014 248.347 2.18605 -0.0507568 0.0111573 0.0
1 53 173.53 248.96 2.1394 0.0335465 -0.0681065 0.0
1 54 174.048 249.566 2.07482 0.00921246 -0.0600313 0.0
1 55 174.646 250.101 2.05601 0.0705135 -0.117715 0.0
1 56 175.326 250.531 2.00467 -0.196193 0.183973 0.0
1 57 175.942 251.036 1.9887 -0.0415993 0.0198658 0.0
1 58 176.484 251.635 1.94012 0.0351184 -0.0852743 0.0
1 59 177.215 252.003 1.91713 0.0669003 -0.130175 0.0
1 60 177.767 252.59 1.87879 -0.211576 0.227323 0.0
2 1 177.352 8.11339 1.49429 -0.0687363 -0.0490191 0.0
2 2 176.816 8.71443 1.50159 0.126481 0.138634 0.0
2 3 176.174 9.19653 1.47399 0.10805 0.14575 0.0
2 4 175.613 9.77171 1.48888 -0.236038 -0.250547 0.0
2 5 175.0 10.2833 1.44691 -0.0231705 -0.000649471 0.0
2 6 174.327 10.7281 1.46577 -0.0561611 0.0192567 0.0
2 7 173.822 11.3666 1.41218 -0.116352 -0.0892297 0.0
2 8 173.112 11.7709 1.43291 0.0455472 0.146995 0.0
2 9 172.586 12.3819 1.37843 -0.124281 -0.0961956 0.0
2 10 171.971 12.8949 1.39819 -0.0752535 0.0149022 0.0
2 11 171.372 13.4223 1.34548 -0.102977 -0.0935178 0.0
2 12 170.743 13.9236 1.36761 0.117529 0.225282 0.0
2 13 170.04 14.3122 1.32407 0.0297731 0.0397861 0.0
2 14 169.276 14.5679 1.34997 0.0857045 0.121567 0.0
2 15 168.563 14.9295 1.31208 -0.0269823 -0.164052 0.0
2 16 167.869 15.3302 1.33123 0.0202436 -0.0585667 0.0
2 17 167.161 15.7022 1.30088 0.114841 0.0730722 0.0
2 18 166.477 16.1164 1.32438 0.10299 0.0529412 0.0
2 19 165.737 16.4325 1.29162 0.0923605 0.0108828 0.0
2 20 165.083 16.8972 1.3124 -0.013999 -0.154752 0.0
2 21 164.428 17.3512 1.26373 -0.0388775 -0.183287 0.0
2 22 163.711 17.7163 1.29542 0.218985 0.244048 0.0
2 23 163.064 18.1805 1.25009 -0.0108033 -0.127142 0.0
2 24 162.412 18.6501 1.28747 -0.0950973 -0.205907 0.0
2 25 161.619 18.8591 1.23957 0.0353956 -0.00314019 0.0
2 26 160.948 19.2936 1.27853 -0.145426 -0.323915 0.0
2 27 160.238 19.6566 1.23092 -0.0396676 -0.130301 0.0
2 28 159.551 20.0709 1.27095 0.0906273 0.112067 0.0
2 29 158.789 20.325 1.22469 0.0763583 0.121244 0.0
2 30 158.077 20.6904 1.26241 -0.0621408 -0.222217 0.0
2 31 157.314 20.9366 1.21288 0.107912 0.195836 0.0
2 32 156.542 21.1452 1.25118 0.0194546 0.0805253 0.0
2 33 155.862 21.6037 1.20981 -0.039888 -0.146867 0.0
2 34 155.016 21.6311 1.24866 -0.081097 -0.165543 0.0
2 35 154.317 22.0146 1.20974 0.00468082 -0.00892919 0.0
2 36 153.602 22.392 1.2566 -0.0940355 -0.147654 0.0
2 37 153.027 22.9593 1.22093 0.179528 0.233409 0.0
2 38 152.443 23.5011 1.26651 0.048074 0.0307104 0.0
2 39 151.76 23.9358 1.23012 0.014529 0.0194364 0.0
2 40 151.162 24.4639 1.27415 -0.0526177 -0.0870378 0.0
2 41 150.587 25.0256 1.24048 0.179755 0.209737 0.0
2 42 149.973 25.5373 1.27891 -0.0097409 -0.03775 0.0
2 43 149.359 26.054 1.25276 -0.0525341 -0.0748687 0.0
2 44 148.688 26.4925 1.29135 -0.121531 -0.200686 0.0
2 45 148.003 26.9041 1.26477 0.107191 0.176642 0.0
2 46 147.322 27.3291 1.30725 -0.0948323 -0.177056 0.0
2 47 146.572 27.6204 1.28432 -0.0295704 -0.0797174 0.0
2 48 145.839 27.94 1.33259 -0.00393391 -0.003408 0.0
2 49 145.155 28.3611 1.30668 -0.0487667 -0.110041 0.0
2 50 144.467 28.7686 1.35246 0.0236524 0.0139724 0.0
2 51 143.718 29.0627 1.32415 -0.0381752 -0.0682826 0.0
2 52 142.998 29.4118 1.36414 0.0304669 0.0427678 0.0
2 53 142.379 29.9367 1.33258 0.0400843 0.0700354 0.0
2 54 141.687 30.3315 1.36422 0.139069 0.239038 0.0
2 55 140.99 30.7287 1.32926 0.0293262 0.0938147 0.0
2 56 140.339 31.1952 1.34762 -0.0863076 -0.0367748 0.0
2 57 139.683 31.6506 1.30779 0.0193509 0.118156 0.0
2 58 139.03 32.1133 1.31265 -0.144139 -0.0319808 0.0
2 59 138.496 32.7231 1.2787 -0.0860154 0.0087427 0.0
2 60 137.745 33.0654 1.27167 -0.0744091 0.122569 0.0
3 1 285.498 215.99 0.00101194 0.235282 0.218813 0.0
3 2 284.928 215.42 0.024882 0.148638 -0.0662729 0.0
3 3 284.474 214.759 0.00367525 -0.0426991 0.302269 0.0
3 4 284.076 214.066 0.0386528 -0.115136 0.17029 0.0
3 5 283.684 213.368 0.0043804 0.0931616 0.137964 0.0
3 6 283.249 212.7 0.0469266 -0.295271 0.232459 0.0
3 7 282.832 212.009 0.00116681 0.301283 -0.0340068 0.0
3 8 282.262 211.441 0.0476999 0.0944215 -0.0694563 0.0
3 9 281.632 210.947 0.00125485 0.0971399 -0.0755773 0.0
3 10 281.044 210.405 0.0479276 0.0238209 0.0764253 0.0
3 11 280.48 209.838 0.0 -0.00225367 0.00283389 0.0
3 12 279.886 209.303 0.0495595 0.100031 -0.0368262 0.0
3 13 279.239 208.826 0.00332335 -0.0815793 0.041616 0.0
3 14 278.801 208.13 0.0543112 -0.16903 0.144924 0.0
3 15 278.146 207.656 0.00389375 0.0571927 0.0511863 0.0
3 16 277.606 207.066 0.0525964 -0.0959769 -0.0112484 0.0
3 17 277.031 206.51 0.00254741 0.0608317 -0.0315311 0.0
3 18 276.614 205.814 0.0550794 -0.00502793 -0.0403668 0.0
3 19 276.088 205.217 0.00492403 0.0462266 -0.101526 0.0
3 20 275.637 204.551 0.059034 -0.145726 -0.00574135 0.0
3 21 275.311 203.816 0.0136351 -0.223347 0.0974259 0.0
3 22 274.803 203.183 0.0633223 0.00559613 -0.0703084 0.0
3 23 274.545 202.413 0.019054 -0.1177 0.0572958 0.0
3 24 274.105 201.74 0.0613247 0.133925 -0.12379 0.0
3 25 273.828 200.985 0.0141603 -0.0267415 0.0425012 0.0
3 26 273.519 200.249 0.0580789 -0.144887 -0.0100134 0.0
3 27 273.144 199.538 0.0105601 -0.0257201 0.0283063 0.0
3 28 272.633 198.916 0.0554519 -0.0673404 -0.0202012 0.0
3 29 272.152 198.284 0.00896962 0.0860215 -0.0689776 0.0
3 30 271.692 197.624 0.0521873 0.000379648 -0.0441192 0.0
3 31 271.4 196.871 0.00317053 -0.374783 0.240795 0.0
3 32 270.967 196.198 0.0485894 -0.116418 0.0510575 0.0
3 33 270.563 195.504 0.00379685 -0.0798755 0.06204 0.0
3 34 270.272 194.758 0.0507688 -0.443577 0.225874 0.0
3 35 270.05 193.986 0.00309324 -0.195997 0.165217 0.0
3 36 269.631 193.29 0.0498752 0.0114399 0.0183936 0.0
3 37 269.33 192.557 0.00325612 0.189469 -0.132995 0.0
3 38 269.149 191.759 0.0479708 0.169003 -0.00790572 0.0
3 39 268.703 191.085 0.00461488 0.134051 -0.131979 0.0
3 40 268.28 190.408 0.0482427 -0.167162 0.141114 0.0
3 41 267.979 189.658 0.00339552 -0.0484058 -0.0386636 0.0
3 42 267.8 188.877 0.0494568 -0.0413962 0.0229563 0.0
3 43 267.55 188.116 0.00389818 -0.305729 0.0150846 0.0
3 44 267.191 187.395 0.0483637 0.372948 -0.0936278 0.0
3 45 266.964 186.624 0.00428052 -0.0676875 -0.114002 0.0
3 46 266.787 185.846 0.0443628 0.0138172 0.0555021 0.0
3 47 266.74 185.038 0.00328005 -0.115606 0.0249445 0.0
3 48 266.467 184.278 0.0435524 0.0597411 0.0295375 0.0
3 49 266.168 183.541 0.00382166 0.116677 -0.0275492 0.0
3 50 265.917 182.776 0.0444989 0.342861 -0.133687 0.0
3 51 265.522 182.078 0.00681934 -0.488416 0.189452 0.0
3 52 265.22 181.334 0.0429732 -0.280231 0.11359 0.0
3 53 264.999 180.566 0.00358089 -0.320104 -0.0398688 0.0
3 54 264.772 179.796 0.03686 -0.215657 0.000235474 0.0
3 55 264.698 178.993 0.00140341 -0.109369 -0.0602321 0.0
3 56 264.633 178.199 0.024209 0.0200056 -0.0677698 0.0
3 57 264.647 177.394 1.95764e-06 0.108423 -0.0635946 0.0
3 58 264.665 176.597 0.0109718 -0.0938903 0.114578 0.0
3 59 264.636 175.794 3.70363e-06 -0.056924 -0.130976 0.0
3 60 264.668 174.996 0.00246213 -0.269745 0.0280622 0.0
4 1 206.441 106.277 3.16886 -0.00846126 -0.13038 0.0
4 2 205.685 106.534 3.10384 0.21971 0.420644 0.0
4 3 204.946 106.841 3.08762 0.0926688 0.176444 0.0
4 4 204.224 107.183 3.01409 0.102551 0.180245 0.0
4 5 203.555 107.63 3.01442 -0.0070671 0.0501637 0.0
4 6 202.895 108.07 2.93805 0.013182 0.0752816 0.0
4 7 202.25 108.555 2.94587 -0.182589 -0.129511 0.0
4 8 201.722 109.158 2.86806 0.0388813 0.126584 0.0
4 9 201.233 109.791 2.88553 -0.12732 -0.0386836 0.0
4 10 200.795 110.463 2.81439 -0.251928 -0.070963 0.0
4 11 200.478 111.202 2.83735 -0.13393 -0.0151656 0.0
4 12 200.038 111.873 2.77806 0.16213 0.151083 0.0
4 13 199.845 112.67 2.80855 -0.0223501 0.0320574 0.0
4 14 199.428 113.354 2.75213 0.0486418 0.088178 0.0
4 15 199.079 114.075 2.78519 0.136055 0.102449 0.0
4 16 198.736 114.798 2.73463 0.153547 0.105768 0.0
4 17 198.587 115.598 2.77357 -0.14699 -0.0260527 0.0
4 18 198.203 116.309 2.73025 -0.459492 -0.144477 0.0
4 19 197.971 117.074 2.76654 -0.153669 -0.0695517 0.0
4 20 197.752 117.846 2.72507 -0.156814 -0.0820756 0.0
4 21 197.67 118.645 2.76057 0.0937177 -0.0530891 0.0
4 22 197.549 119.434 2.72456 0.121196 -0.0782417 0.0
4 23 197.551 120.24 2.75363 0.409389 -0.0374832 0.0
4 24 197.424 121.029 2.72867 -0.145708 -0.112533 0.0
4 25 197.288 121.819 2.74449 -0.0515953 -0.0985835 0.0
4 26 197.241 122.617 2.73561 -0.0969226 -0.102591 0.0
4 27 197.244 123.421 2.73439 -0.116108 -0.0652431 0.0
4 28 197.44 124.204 2.74143 -0.086674 -0.0837509 0.0
4 29 197.552 124.994 2.72104 0.211239 -0.071878 0.0
4 30 197.536 125.801 2.74397 0.0746095 -0.0562587 0.0
4 31 197.399 126.588 2.71037 -0.0350721 -0.0344326 0.0
4 32 197.306 127.386 2.74798 0.114752 -0.00466554 0.0
4 33 196.996 128.136 2.70502 -0.521953 -0.0988333 0.0
4 34 196.816 128.912 2.74993 0.120735 0.0444736 0.0
4 35 196.638 129.695 2.70503 -0.110895 0.0500405 0.0
4 36 196.401 130.459 2.75458 -0.0258897 0.034495 0.0
4 37 196.254 131.251 2.70503 -0.272368 0.0494573 0.0
4 38 196.261 132.056 2.75633 -0.105707 0.0494443 0.0
4 39 196.369 132.849 2.70973 0.175243 0.0259703 0.0
4 40 196.425 133.649 2.76364 -0.13614 0.0596842 0.0
4 41 196.633 134.427 2.71975 -0.0270284 0.0439051 0.0
4 42 196.772 135.214 2.76841 -0.0687476 0.0316441 0.0
4 43 196.805 136.018 2.72345 0.0358908 0.0161817 0.0
4 44 196.765 136.817 2.7742 -0.179137 0.00223462 0.0
4 45 196.659 137.612 2.73048 0.0598974 -0.00519054 0.0
4 46 196.495 138.395 2.78254 0.0281167 0.00105723 0.0
4 47 196.337 139.18 2.73516 0.140446 -0.00510288 0.0
4 48 196.126 139.951 2.78963 0.127217 -0.00908967 0.0
4 49 195.952 140.736 2.74105 0.149754 -0.00602705 0.0
4 50 195.387 141.374 2.79874 0.339951 0.0641229 0.0
4 51 195.193 142.149 2.74956 0.00428772 -0.0609915 0.0
4 52 195.023 142.934 2.8063 -0.0176299 -0.0298135 0.0
4 53 194.992 143.739 2.76045 -0.143778 -0.038379 0.0
4 54 194.734 144.508 2.81265 0.221127 0.0228027 0.0
4 55 194.735 145.319 2.77211 0.136028 0.0486868 0.0
4 56 194.473 146.087 2.81791 -0.0313461 0.00259757 0.0
4 57 194.399 146.885 2.78474 -0.0102463 0.0607523 0.0
4 58 194.358 147.685 2.82271 -0.335288 -0.00585145 0.0
4 59 194.445 148.485 2.8045 0.0233611 0.0950056 0.0
4 60 194.425 149.285 2.83806 0.276862 -0.0148171 0.0
5 1 84.0465 199.631 3.16692 -0.100485 -0.0169272 0.0
5 2 83.7875 200.395 3.17199 -0.0996125 -0.101084 0.0
5 3 83.3917 201.089 3.13579 0.0266838 0.0523708 0.0
5 4 82.9746 201.775 3.1563 -0.207424 -0.139947 0.0
5 5 82.4235 202.362 3.10436 0.0734327 0.0995422 0.0
5 6 81.9646 203.017 3.13446 0.0755561 0.0961043 0.0
5 7 81.5433 203.697 3.07807 -0.0909826 0.00605831 0.0
5 8 81.2741 204.462 3.1147 0.0848706 0.107294 0.0
5 9 80.732 205.077 3.06135 0.0400438 0.0924332 0.0
5 10 80.3891 205.797 3.10379 -0.0303997 0.0266679 0.0
5 11 80.092 206.547 3.05372 0.0398224 0.0982462 0.0
5 12 79.9538 207.34 3.09893 0.137354 0.0812208 0.0
5 13 79.9446 208.144 3.04847 -0.0427617 0.0718503 0.0
5 14 79.9793 208.941 3.09564 -0.145991 0.0874935 0.0
5 15 80.1418 209.736 3.05152 0.156571 0.0417443 0.0
5 16 80.0518 210.541 3.09531 0.0186435 0.0582089 0.0
5 17 80.0479 211.335 3.05472 0.0804089 0.0324918 0.0
5 18 80.0607 212.144 3.09748 -0.0305035 0.0180675 0.0
5 19 79.8297 212.92 3.05589 0.217748 0.0429184 0.0
5 20 79.6907 213.705 3.10164 -0.482907 -0.144683 0.0
5 21 79.465 214.476 3.05656 -0.117689 -0.0513764 0.0
5 22 79.1894 215.229 3.10264 -0.311549 -0.142819 0.0
5 23 78.735 215.898 3.05407 0.0283942 -0.00714714 0.0
5 24 78.5058 216.677 3.10088 0.067192 -0.00849598 0.0
5 25 77.993 217.313 3.05548 0.0463655 -0.0227701 0.0
5 26 77.6852 218.051 3.09921 0.0825618 -0.0405575 0.0
5 27 77.3225 218.764 3.05418 -0.0859819 -0.123683 0.0
5 28 77.1398 219.554 3.09944 0.0709096 -0.0509295 0.0
5 29 76.6724 220.225 3.05271 0.0957102 -0.0717467 0.0
5 30 76.4213 220.983 3.09854 0.0449149 -0.0773657 0.0
5 31 76.1461 221.736 3.05127 0.135518 -0.0793647 0.0
5 32 75.9686 222.517 3.09619 0.0586634 -0.0822065 0.0
5 33 75.8398 223.306 3.05395 -0.349296 -0.167589 0.0
5 34 75.82 224.111 3.0982 0.0855925 -0.0762589 0.0
5 35 75.6177 224.89 3.06078 -0.113525 -0.103279 0.0
5 36 75.5297 225.684 3.10613 0.0589327 -0.0397224 0.0
5 37 75.3661 226.469 3.06707 0.109844 0.00220358 0.0
5 38 75.1885 227.248 3.11377 0.169306 0.0427009 0.0
5 39 74.9837 228.023 3.07687 -0.225476 -0.0112387 0.0
5 40 74.8933 228.82 3.1258 0.0765345 0.0628989 0.0
5 41 74.76 229.608 3.08408 -0.00450404 0.0762703 0.0
5 42 74.7353 230.413 3.13544 0.332473 0.103592 0.0
5 43 74.7193 231.207 3.09117 0.0903326 0.0779243 0.0
5 44 74.8238 232.013 3.14152 0.0874793 0.107326 0.0
5 45 74.6587 232.806 3.09683 0.0210104 0.0701925 0.0
5 46 74.5836 233.6 3.14883 -0.0481049 0.0678132 0.0
5 47 74.7361 234.405 3.10342 -0.106333 0.0695547 0.0
5 48 74.7 235.199 3.15456 -0.0324483 0.0352472 0.0
5 49 74.6605 236.003 3.1103 -0.225267 0.0460411 0.0
5 50 74.771 236.801 3.16267 -0.217779 0.015649 0.0
5 51 74.967 237.577 3.12194 0.0981415 -0.0390266 0.0
5 52 75.3295 238.302 3.17386 0.0710153 -0.102407 0.0
5 53 75.4556 239.101 3.13606 -0.247332 0.0304169 0.0
5 54 75.7962 239.831 3.18426 0.216002 -0.127698 0.0
5 55 75.9306 240.629 3.14814 0.0171493 -0.0902439 0.0
5 56 76.2317 241.371 3.18906 -0.228366 0.0210328 0.0
5 57 76.4795 242.133 3.15541 -0.11261 -0.0748294 0.0
5 58 76.8791 242.833 3.19066 -0.118833 -0.00120383 0.0
5 59 77.0096 243.643 3.17541 0.095389 -0.184656 0.0
5 60 77.5183 244.298 3.19975 0.249305 -0.157651 0.0
6 1 159.409 56.4235 1.33078 0.11591 0.360901 0.0
6 2 158.761 56.8956 1.31172 -0.160254 0.0434723 0.0
6 3 158.084 57.319 1.32862 -0.176097 -0.0390121 0.0
6 4 157.427 57.7833 1.30419 -0.0955226 0.106474 0.0
6 5 156.869 58.3617 1.33357 -0.215344 -0.0756962 0.0
6 6 156.384 58.9999 1.30744 -0.189478 -0.00270113 0.0
6 7 155.818 59.5692 1.34155 -0.0168992 0.0911327 0.0
6 8 155.14 60.0084 1.31049 0.013395 0.180303 0.0
6 9 154.589 60.5962 1.33266 -0.0808627 -0.00512808 0.0
6 10 153.93 61.0547 1.3007 -0.0543538 0.02904 0.0
6 11 153.325 61.5768 1.32371 0.0901384 0.16195 0.0
6 12 152.624 61.9804 1.2935 -0.175932 -0.199611 0.0
6 13 152.026 62.5145 1.31386 0.0791815 0.0984842 0.0
6 14 151.494 63.1147 1.27933 0.0230071 -0.0461242 0.0
6 15 150.959 63.7083 1.3116 -0.0194152 -0.0181027 0.0
6 16 150.301 64.1791 1.27378 -0.0471917 -0.133819 0.0
6 17 149.748 64.7555 1.30975 -0.0436462 -0.0808472 0.0
6 18 149.138 65.2756 1.27065 -0.0568943 -0.124588 0.0
6 19 148.671 65.9395 1.31106 0.105907 0.0320858 0.0
6 20 148.02 66.4196 1.2758 -0.0902908 -0.151896 0.0
6 21 147.512 67.0434 1.30997 -0.00148139 -0.102911 0.0
6 22 146.93 67.5894 1.27758 0.049455 -0.0356387 0.0
6 23 146.345 68.1395 1.31552 0.138855 0.0214863 0.0
6 24 145.806 68.7281 1.28161 0.120196 0.0260745 0.0
6 25 145.405 69.4367 1.32077 -0.114179 -0.176958 0.0
6 26 144.802 69.9742 1.29361 -0.264682 -0.272869 0.0
6 27 144.284 70.5815 1.33241 0.0488153 -0.040645 0.0
6 28 143.795 71.2182 1.30357 0.0252909 -0.0216377 0.0
6 29 143.439 71.9418 1.33873 0.045087 -0.0331648 0.0
6 30 142.981 72.5972 1.30745 0.136502 0.0624196 0.0
6 31 142.475 73.2194 1.33567 0.0149067 -0.0323774 0.0
6 32 141.956 73.8279 1.29745 -0.17702 -0.169001 0.0
6 33 141.582 74.5464 1.32797 -0.202731 -0.177451 0.0
6 34 141.011 75.1202 1.28787 0.0137946 -0.0170064 0.0
6 35 140.564 75.7826 1.32065 -0.019746 -0.0572764 0.0
6 36 140.196 76.4983 1.27936 -0.137061 -0.101819 0.0
6 37 139.73 77.1485 1.31332 0.220863 0.0643893 0.0
6 38 139.267 77.8025 1.27479 0.0372955 -0.00526709 0.0
6 39 138.993 78.5705 1.30861 0.0602175 -0.0416959 0.0
6 40 138.513 79.2148 1.27234 0.103953 0.013077 0.0
6 41 138.092 79.8933 1.31087 0.126679 -0.00637209 0.0
6 42 137.559 80.5011 1.27893 0.0641497 -0.0395456 0.0
6 43 137.185 81.2114 1.3259 0.105137 -0.0337832 0.0
6 44 136.735 81.8748 1.29411 -0.0171337 -0.0789676 0.0
6 45 136.507 82.6611 1.34681 -0.0795026 -0.112032 0.0
6 46 136.043 83.3198 1.31602 0.0117018 -0.0382091 0.0
6 47 135.658 84.0176 1.37119 -0.225132 -0.167155 0.0
6 48 135.265 84.7215 1.33981 -0.251269 -0.146809 0.0
6 49 135.061 85.5025 1.39748 -0.112303 -0.0674465 0.0
6 50 134.821 86.2615 1.36678 -0.0538665 -0.0557606 0.0
6 51 134.567 87.0273 1.42537 0.11848 0.0388451 0.0
6 52 134.021 87.6487 1.39444 0.0230569 0.0238882 0.0
6 53 133.749 88.4074 1.45217 -0.0357571 -0.0358355 0.0
6 54 133.38 89.1143 1.41975 0.148844 0.094369 0.0
6 55 132.825 89.7207 1.47239 0.278013 0.174722 0.0
6 56 132.64 90.5321 1.44492 0.118602 0.0825423 0.0
6 57 132.143 91.1709 1.49007 -0.121438 -0.0273764 0.0
6 58 131.824 91.9082 1.46769 0.0765114 0.0492331 0.0
6 59 131.517 92.6463 1.49453 0.0831745 0.05571 0.0
6 60 130.968 93.2609 1.4761 0.00303834 0.022698 0.0
7 1 134.11 135.366 3.19916 -0.0690354 -0.00405109 0.0
7 2 133.833 136.131 3.17731 0.111662 -0.154285 0.0
7 3 133.763 136.928 3.19209 0.305908 0.117907 0.0
7 4 133.606 137.716 3.15974 -0.263327 -0.15446 0.0
7 5 133.349 138.475 3.19529 0.209847 0.0365161 0.0
7 6 133.162 139.255 3.15764 0.00502909 -0.0688586 0.0
7 7 132.923 140.017 3.19753 0.0828837 -0.0504359 0.0
7 8 132.748 140.801 3.15203 0.159419 -0.0147836 0.0
7 9 132.587 141.583 3.196 0.185166 -0.0419261 0.0
7 10 132.458 142.376 3.14975 -0.290636 -0.114802 0.0
7 11 132.229 143.143 3.19694 -0.168254 -0.115641 0.0
7 12 132.029 143.917 3.15106 -0.0837229 -0.0514948 0.0
7 13 131.857 144.699 3.19697 -0.00438105 -0.0155759 0.0
7 14 131.54 145.439 3.15106 -0.0332484 -0.0281018 0.0
7 15 131.388 146.228 3.19533 0.0641347 0.0394485 0.0
7 16 131.018 146.951 3.14951 0.0362787 -0.0198502 0.0
7 17 130.855 147.736 3.19333 -0.119743 -0.00883141 0.0
7 18 130.602 148.495 3.14732 0.254385 0.0396558 0.0
7 19 130.394 149.268 3.19521 0.0498201 0.0436785 0.0
7 20 130.17 150.034 3.14856 -0.225122 -0.0515265 0.0
7 21 130.043 150.828 3.19587 -0.0279448 -0.00530241 0.0
7 22 129.748 151.578 3.14544 0.0889351 0.0465082 0.0
7 23 129.551 152.35 3.19231 -0.0157131 -0.0134692 0.0
7 24 129.374 153.136 3.14565 -0.121775 0.0411857 0.0
7 25 129.461 153.947 3.19571 -0.110779 -0.0424635 0.0
7 26 129.355 154.738 3.14732 0.14926 0.0390058 0.0
7 27 129.325 155.541 3.19714 0.115404 0.013123 0.0
7 28 129.111 156.321 3.14353 -0.279185 -0.0433923 0.0
7 29 129.006 157.108 3.1974 -0.264956 -0.0617918 0.0
7 30 128.938 157.914 3.13967 0.11344 -0.0036022 0.0
7 31 128.746 158.685 3.19552 0.229115 0.0430472 0.0
7 32 128.447 159.441 3.14001 -0.0101918 -0.0319401 0.0
7 33 128.419 160.248 3.19808 -0.172462 -0.0255422 0.0
7 34 128.3 161.036 3.14186 -0.0893874 -0.0162655 0.0
7 35 128.263 161.838 3.19815 0.22615 -0.0215264 0.0
7 36 128.272 162.637 3.13826 0.0152897 -0.0224549 0.0
7 37 128.379 163.433 3.19761 -0.138208 0.00473749 0.0
7 38 128.54 164.215 3.13739 -0.261448 -0.00504743 0.0
7 39 128.675 165.003 3.19952 -0.0213982 -0.012599 0.0
7 40 128.833 165.788 3.1389 0.0156189 0.00192421 0.0
7 41 128.972 166.576 3.1978 -0.124499 -0.00432176 0.0
7 42 129.24 167.338 3.14206 -0.0381197 0.0430508 0.0
7 43 129.642 168.031 3.1961 -0.26577 0.0804071 0.0
7 44 130.083 168.703 3.14704 -0.113981 0.123891 0.0
7 45 130.665 169.261 3.19408 -0.142919 0.071696 0.0
7 46 131.065 169.97 3.14585 0.166951 -0.045656 0.0
7 47 131.761 170.426 3.19541 -0.0405353 -0.0367866 0.0
7 48 132.175 171.128 3.1467 0.325426 -0.191168 0.0
7 49 132.767 171.671 3.19966 -0.131127 0.110062 0.0
7 50 133.296 172.272 3.1441 -0.0856735 0.206321 0.0
7 51 133.845 172.856 3.19932 0.0951531 -0.0599762 0.0
7 52 134.462 173.368 3.14187 -0.0608363 0.0679987 0.0
7 53 135.029 173.938 3.196 -0.0351074 0.117654 0.0
7 54 135.457 174.621 3.14911 0.0679366 -0.0183167 0.0
7 55 135.834 175.324 3.19656 0.134813 0.0504056 0.0
7 56 136.201 176.033 3.15895 -0.349916 0.186358 0.0
7 57 136.539 176.759 3.19936 -0.066693 0.166925 0.0
7 58 136.914 177.464 3.1709 -0.355139 0.117998 0.0
7 59 137.488 178.047 3.19764 -0.11892 0.260937 0.0
7 60 137.903 178.721 3.18068 0.108213 -0.290805 0.0
8 1 75.9592 227.047 1.74074 -0.0459518 0.106312 0.0
8 2 76.2742 227.794 1.78184 0.00382644 0.0510015 0.0
8 3 76.8012 228.405 1.81537 -0.0177454 0.0776745 0.0
8 4 77.1979 229.099 1.85446 0.0588044 0.0121494 0.0
8 5 77.574 229.804 1.88511 -0.0558053 0.0804254 0.0
8 6 78.032 230.465 1.92025 0.0292753 0.0184428 0.0
8 7 78.3535 231.2 1.96123 0.0235039 0.0275801 0.0
8 8 78.6101 231.955 2.0151 -0.286735 0.119475 0.0
8 9 78.8955 232.702 2.07502 0.198827 -0.0462195 0.0
8 10 79.0322 233.489 2.17812 0.0635672 -0.0016531 0.0
8 11 79.2733 234.243 2.28465 -0.0248183 0.00420794 0.0
8 12 79.4267 235.024 2.39754 0.141681 -0.0382205 0.0
8 13 79.6575 235.778 2.50881 -0.0015194 -0.010631 0.0
8 14 79.8988 236.543 2.59921 -0.0105513 -0.00219725 0.0
8 15 79.9553 237.34 2.67154 0.0164497 -0.0197186 0.0
8 16 80.009 238.139 2.70856 0.0566672 -0.00925283 0.0
8 17 80.2147 238.916 2.72201 0.219456 -0.0619964 0.0
8 18 80.3891 239.696 2.7321 -0.284436 0.0824277 0.0
8 19 80.7278 240.429 2.72398 0.00474343 0.00447773 0.0
8 20 80.9368 241.2 2.71871 0.061025 -0.0300124 0.0
8 21 81.3336 241.909 2.70885 0.154249 -0.0573977 0.0
8 22 81.4184 242.724 2.70181 -0.230843 0.0710642 0.0
8 23 81.8054 243.435 2.69196 0.177282 -0.0505995 0.0
8 24 81.903 244.248 2.68278 0.28967 -0.0918188 0.0
8 25 82.2416 244.973 2.67724 0.0355478 0.00560396 0.0
8 26 82.5821 245.698 2.66638 -0.00463161 0.0460409 0.0
8 27 82.9247 246.418 2.67312 -0.0576829 0.0692009 0.0
8 28 83.3968 247.075 2.65253 0.0229786 0.0318686 0.0
8 29 83.5586 247.884 2.66128 -0.143079 0.121007 0.0
8 30 84.0438 248.538 2.64126 -0.130564 0.100468 0.0
8 31 84.3042 249.297 2.6547 0.222669 -0.0605983 0.0
8 32 84.6052 250.036 2.63198 0.173206 -0.0187959 0.0
8 33 85.0207 250.726 2.64951 0.102391 0.00115685 0.0
8 34 85.304 251.474 2.62482 0.1751 -0.0206086 0.0
8 35 85.7727 252.138 2.64657 -0.0779219 0.0870529 0.0
8 36 86.0211 252.903 2.62545 -0.0498103 0.0938174 0.0
8 37 86.2592 253.661 2.65277 0.073934 0.0168431 0.0
8 38 86.3873 254.462 2.63284 -0.407029 0.192484 0.0
8 39 86.715 255.194 2.66078 0.0990881 -0.0117357 0.0
8 40 87.0872 255.902 2.63577 -0.0403768 0.026143 0.0
8 41 87.4918 256.592 2.66832 -0.0320339 0.0385813 0.0
8 42 87.9787 257.231 2.64383 0.0475238 -0.029892 0.0
8 43 88.3516 257.941 2.67382 0.020192 -0.00561055 0.0
8 44 88.7515 258.633 2.64398 0.0501319 -0.0374632 0.0
8 45 89.3539 259.189 2.67035 0.0705229 -0.0520089 0.0
8 46 89.6902 259.928 2.6436 -0.151466 0.0957859 0.0
8 47 90.2528 260.512 2.66841 0.152354 -0.11158 0.0
8 48 90.6169 261.23 2.64762 0.00166966 -0.0249108 0.0
8 49 91.0823 261.881 2.68011 -0.144558 0.0738766 0.0
8 50 91.4941 262.566 2.67865 0.0646545 -0.0763607 0.0
8 51 92.1217 263.098 2.73245 -0.016667 -0.0301892 0.0
8 52 92.4671 263.833 2.75129 0.120131 -0.127551 0.0
8 53 92.929 264.479 2.82579 -0.0497377 -0.00884103 0.0
8 54 93.426 265.109 2.85708 -0.0466998 -0.00894411 0.0
8 55 93.9576 265.701 2.93002 0.016004 -0.0629379 0.0
8 56 94.3894 266.381 2.95681 -0.0444892 -0.0172272 0.0
8 57 94.9661 266.941 3.00543 -0.176866 0.0921365 0.0
8 58 95.4897 267.543 3.01124 -0.16129 0.0868293 0.0
8 59 95.8784 268.257 3.03626 -0.0689454 0.0162499 0.0
8 60 96.5384 268.751 3.03357 -0.0968189 0.024267 0.0
9 1 140.465 253.982 0.00223485 0.117991 -0.17468 0.0
9 2 141.125 254.422 0.0239415 -0.234574 0.05351 0.0
9 3 141.827 254.819 0.00580386 -0.028437 -0.0819815 0.0
9 4 142.539 255.172 0.0347834 -0.189948 -0.0405672 0.0
9 5 143.266 255.511 0.00212438 0.0753055 -0.19605 0.0
9 6 143.981 255.866 0.0439227 -0.182051 0.207561 0.0
9 7 144.778 256.038 0.00266864 -0.118464 0.223772 0.0
9 8 145.479 256.432 0.0495096 -0.0369604 -0.0930302 0.0
9 9 146.244 256.68 0.00222173 -0.00490261 -0.170916 0.0
9 10 147.007 256.918 0.0486762 0.0339894 -0.00161781 0.0
9 11 147.77 257.163 0.00394556 -0.100639 0.0116482 0.0
9 12 148.519 257.454 0.0495122 0.0136289 -0.186696 0.0
9 13 149.219 257.841 0.00313173 -0.0141186 -0.1697 0.0
9 14 149.986 258.106 0.0532697 -0.016511 0.0362571 0.0
9 15 150.641 258.575 0.00649604 -0.0304892 0.0194609 0.0
9 16 151.256 259.086 0.0541511 0.103468 -0.17789 0.0
9 17 151.888 259.575 0.00326643 -0.0188649 0.060635 0.0
9 18 152.537 260.048 0.0522284 0.0108404 -0.0250484 0.0
9 19 153.083 260.641 0.000273947 -0.0480009 -0.0876841 0.0
9 20 153.608 261.242 0.0512152 -0.0193183 0.065114 0.0
9 21 154.13 261.851 0.00152472 0.0289188 -0.00504332 0.0
9 22 154.772 262.339 0.0516106 0.179679 -0.148028 0.0
9 23 155.332 262.907 0.00333485 -0.152139 0.0962928 0.0
9 24 155.856 263.518 0.0504426 -0.247702 0.187292 0.0
9 25 156.209 264.246 0.00345214 0.167155 -0.090712 0.0
9 26 156.579 264.95 0.0500104 -0.0726014 0.0497598 0.0
9 27 157.188 265.511 0.00449148 0.402394 -0.348841 0.0
9 28 157.459 266.286 0.050855 0.061941 -0.06898 0.0
9 29 157.956 266.912 0.00277693 -0.187634 0.058214 0.0
9 30 158.33 267.628 0.0518106 0.0222049 -0.0502378 0.0
9 31 158.861 268.227 0.0011622 -0.0231627 -0.0223942 0.0
9 32 159.36 268.856 0.052341 0.0169784 0.0379962 0.0
9 33 159.996 269.35 0.00180067 -0.203368 0.163003 0.0
9 34 160.631 269.833 0.053016 -0.0116797 -0.0815505 0.0
9 35 161.284 270.299 0.000887209 -0.2943 0.203373 0.0
9 36 161.867 270.849 0.0490677 0.0171977 -0.0951632 0.0
9 37 162.409 271.439 0.00139695 -0.281172 0.152474 0.0
9 38 162.989 271.99 0.0515392 0.0345503 0.0391432 0.0
9 39 163.541 272.576 0.00127928 0.165342 -0.334157 0.0
9 40 164.28 272.936 0.0520445 -0.0879141 -0.0585036 0.0
9 41 164.81 273.561 0.00118344 -0.125904 0.0837574 0.0
9 42 165.509 273.96 0.0523452 0.0345217 -0.101426 0.0
9 43 166.139 274.458 0.00106795 -0.104987 0.0350723 0.0
9 44 166.839 274.851 0.0519762 0.155169 -0.342602 0.0
9 45 167.573 275.173 0.00179095 0.0301979 -0.180671 0.0
9 46 168.256 275.596 0.0546328 0.110225 -0.244981 0.0
9 47 168.97 275.953 0.00356559 -0.0624731 0.16704 0.0
9 48 169.719 276.244 0.0515965 0.033717 -0.0676535 0.0
9 49 170.331 276.796 0.0025892 0.263455 -0.18861 0.0
9 50 171.143 276.97 0.0517532 0.0588898 -0.0981903 0.0
9 51 171.787 277.462 0.00335061 0.0866326 0.0623849 0.0
9 52 172.507 277.805 0.0497965 0.110228 -0.209386 0.0
9 53 173.246 278.125 0.00211429 -0.0398187 0.138143 0.0
9 54 174.032 278.297 0.0423319 0.0735165 -0.100042 0.0
9 55 174.8 278.506 0.00141785 0.0734679 0.104629 0.0
9 56 175.519 278.89 0.0317929 -0.0142561 0.0820276 0.0
9 57 176.332 278.968 0.00102994 0.0407971 0.115766 0.0
9 58 177.093 279.197 0.0194582 -0.0918752 0.170202 0.0
9 59 177.839 279.508 2.65277e-05 0.029679 0.132924 0.0
9 60 178.659 279.518 0.000921905 -0.0663947 0.172773 0.0
10 1 181.836 262.312 2.91326 0.0568327 -0.307075 0.0
10 2 182.587 262.569 2.92001 -0.0367082 0.0138563 0.0
10 3 183.283 262.997 2.89008 -0.10587 0.0164511 0.0
10 4 184.027 263.268 2.90834 -0.0928378 0.0813123 0.0
10 5 184.83 263.413 2.86457 -0.0787304 -0.0963124 0.0
10 6 185.521 263.837 2.89533 -0.0570346 -0.0926869 0.0
10 7 186.269 264.115 2.8445 -0.110844 -0.0555793 0.0
10 8 187.007 264.424 2.88239 -0.158668 0.116067 0.0
10 9 187.802 264.582 2.83744 -0.173823 0.109893 0.0
10 10 188.514 264.957 2.87773 -0.103082 -0.0505845 0.0
10 11 189.269 265.224 2.81932 -0.170179 0.0882853 0.0
10 12 189.961 265.639 2.85583 0.0147248 -0.274852 0.0
10 13 190.68 265.984 2.80214 -0.0191502 -0.180168 0.0
10 14 191.426 266.283 2.84309 -0.1004 0.0299238 0.0
10 15 192.161 266.594 2.79373 -0.00669509 -0.146079 0.0
10 16 192.811 267.087 2.83037 -0.156028 0.179214 0.0
10 17 193.564 267.363 2.78594 0.0312332 -0.133249 0.0
10 18 194.241 267.811 2.82771 0.0645759 -0.214471 0.0
10 19 195.016 268.036 2.78186 0.0105005 0.00209654 0.0
10 20 195.781 268.253 2.82299 -0.054529 0.24887 0.0
10 21 196.563 268.451 2.77979 0.0683056 -0.0621687 0.0
10 22 197.267 268.847 2.82455 -0.0156558 0.173458 0.0